   * xtb version 6.4.1 (bd6e46d) compiled by 'conda@4901f00b25ba' on 2021-06-10
          program call               : /jet/home/maihfly/.conda/envs/Cyclodextrins-Env/bin/xtb aBiCyDNH2_opt_xtb.xyz --chrg 1 --uhf 0 --opt
          number of atoms            :                   138
          number of electrons        :                   418
          charge                     :                     1
          spin                       :                   0.0

   ID    Z sym.   atoms
    1    6 C      1-6, 18-23, 39-44, 59-64, 76-81, 97-102, 118, 119, 122,
                  128, 129, 132, 133
    2    8 O      7-10, 24-28, 45-49, 65-68, 82-86, 103-107
    3    1 H      11-17, 29-38, 50-58, 69-75, 87-96, 108-117, 123-127, 131,
                  134-138
    4    7 N      120, 121, 130

          :  Hamiltonian                  GFN2-xTB          :
 * total energy  :  -247.0782484 Eh     change       -0.3691241E-08 Eh
 * total energy  :  -247.1141634 Eh     change       -0.3591505E-01 Eh
 * total energy  :  -247.1292985 Eh     change       -0.1513510E-01 Eh
 * total energy  :  -247.1329885 Eh     change       -0.3690008E-02 Eh
 * total energy  :  -247.1350520 Eh     change       -0.2063491E-02 Eh
 * total energy  :  -247.1362154 Eh     change       -0.1163343E-02 Eh
 * total energy  :  -247.1370622 Eh     change       -0.8468209E-03 Eh
 * total energy  :  -247.1376136 Eh     change       -0.5514418E-03 Eh
 * total energy  :  -247.1379373 Eh     change       -0.3237184E-03 Eh
 * total energy  :  -247.1381490 Eh     change       -0.2116836E-03 Eh
 * total energy  :  -247.1565542 Eh     change       -0.6636773E-04 Eh
 * total energy  :  -247.1565972 Eh     change       -0.4293805E-04 Eh
 * total energy  :  -247.1566260 Eh     change       -0.2881074E-04 Eh
 * total energy  :  -247.1566496 Eh     change       -0.2362781E-04 Eh
 * total energy  :  -247.1566689 Eh     change       -0.1927583E-04 Eh
 * total energy  :  -247.1566793 Eh     change       -0.1043294E-04 Eh
 * total energy  :  -247.1566923 Eh     change       -0.1302323E-04 Eh
 * total energy  :  -247.1566978 Eh     change       -0.5496956E-05 Eh
 * total energy  :  -247.1567012 Eh     change       -0.3343728E-05 Eh
   *** GEOMETRY OPTIMIZATION CONVERGED AFTER 123 ITERATIONS ***

 final structure:
================
138
 xtb: 6.4.1 (bd6e46d)
C        28.02787245663710  -19.63035852860208  -15.44499795896910
C        27.62394694009323  -20.79853824139378  -16.37350460340764
C        28.80554305018073  -21.14859200588164  -17.28912582226686
C        29.16945666296405  -19.87213897301946  -18.05732936048966
C        29.49364848142592  -18.73988628328245  -17.06419649497805
C        29.77989997725617  -17.43638256389399  -17.82795587136474
O        27.19907007240477  -21.91239838830928  -15.63624569316689
O        28.39827384719687  -22.18747617446392  -18.13550387342917
O        30.26862890633776  -20.11430608285790  -18.92642163460580
O        28.37447019997080  -18.51960346944592  -16.21691829598886
H        27.15578856944863  -19.31661771115284  -14.85403443568444
H        26.79792342316771  -20.43540888298317  -17.00567958092333
H        29.66886889747704  -21.45781802027817  -16.67819026567604
H        28.29214357027493  -19.56675752482675  -18.64261123433646
H        30.34015915313984  -19.02404509733181  -16.43052344535199
H        27.09906542711597  -22.63345785595209  -16.27567907845571
H        29.07855473844453  -22.33741948065872  -18.81403081693126
C        31.29448177838884  -21.19347526712151  -12.40051761082821
C        30.39371569367093  -22.42228271892088  -12.50769496196567
C        29.26394607941465  -22.13114424349263  -13.50092443549772
C        28.75351150880132  -20.67135699825142  -13.41016240672964
C        29.26027726605814  -19.91222207602056  -12.17678752289083
C        28.39133045550273  -20.25972314326102  -10.95532268260858
O        31.19812106720991  -23.49128768231509  -12.94319355747564
O        28.25047998720627  -23.06785349780491  -13.25688958141746
O        29.10034538136470  -19.95382131292602  -14.59263820670325
O        30.64205173157243  -20.08164032767887  -11.87819789605432
O        27.10606694934863  -19.74485072341749  -11.20942269065002
H        32.12325560112996  -21.40618822631282  -11.70959584060037
H        29.96546517352800  -22.64450733214047  -11.52199380745300
H        29.68225803463898  -22.26063333063917  -14.50997378864310
H        27.66201607986519  -20.69939775075083  -13.31534469153011
H        29.12471781093332  -18.83897754283119  -12.36469746923656
H        28.35003779601790  -21.34574617661754  -10.80599126902610
H        28.84446997465782  -19.79386290023437  -10.07181511708953
H        30.62564235843523  -24.26024178879509  -13.05991119636726
H        27.54975409799120  -22.91931062814069  -13.90845532080728
H        26.55004316007926  -19.88747634719890  -10.43554424425498
C        35.47915572091505  -19.69744811707257  -15.24274915556410
C        35.32763499872566  -21.18698165501559  -14.87996484537283
C        33.85939393686868  -21.60080340416461  -14.71982806522803
C        33.16411489780695  -20.59008572630121  -13.79313883935428
C        33.32839780777312  -19.19880544265706  -14.41175320242039
C        32.52284196520922  -18.09595604476131  -13.70536623730975
O        35.97560495132284  -21.93430385486982  -15.87694328401436
O        33.84313902585293  -22.90379025633381  -14.20779769912828
O        31.80103300837579  -20.93889548741483  -13.69022394387222
O        34.70951767796718  -18.85361604888491  -14.44016504737872
O        31.30688713647434  -17.87910584384112  -14.37089677956127
H        36.51960004043442  -19.40610913290690  -15.05053790556139
H        35.81834236044741  -21.34246961852680  -13.90694810830181
H        33.36070050224378  -21.57035095217508  -15.70368650338726
H        33.64828411297177  -20.60972761044045  -12.80796400056244
H        32.94690023684353  -19.25611480397141  -15.43816408490574
H        32.36452040811576  -18.34795422291055  -12.65242163929533
H        33.08691355956809  -17.16172034684030  -13.76455765277152
H        35.80064725304780  -22.86626206315226  -15.68787545816252
H        30.70893694888576  -18.61975248060524  -14.18243345468087
C        36.92139394809210  -17.36211421437003  -19.73586956224632
C        37.76262655730605  -18.50451078820317  -19.12153661200972
C        36.83359687330898  -19.47931346155161  -18.38393479264850
C        36.07080469011597  -18.66349847258314  -17.33268239128914
C        35.31150863245214  -17.51287991193674  -18.02040383282732
C        34.60081214213658  -16.64557290202757  -16.96830199998904
O        38.52078348466790  -19.16124030758511  -20.10089205402281
O        37.62972699469290  -20.48069262992840  -17.81402464747904
O        35.17646432834936  -19.50028772348888  -16.61007011496343
O        36.23384481595685  -16.69153970724590  -18.72239245624322
H        37.59310741198262  -16.61427096074053  -20.18041885279747
H        38.43431182018814  -18.04524390404595  -18.37871231380209
H        36.11108794206832  -19.91179512092117  -19.09472351204604
H        36.80472744808849  -18.22165132750683  -16.64598196860981
H        34.59982205665148  -17.91490603878205  -18.74930907372683
H        38.90565347609910  -19.93639092947470  -19.66518314216011
H        37.08355974281747  -21.03646342892577  -17.23227580621252
C        34.28788114991945  -19.14339772977759  -23.23381712053590
C        35.57353472618399  -19.94933006213721  -23.40900565208843
C        36.57376528818769  -19.54121939655460  -22.32252618592117
C        36.52108401867042  -18.02592927202334  -22.00552886393175
C        35.71414454263126  -17.20696367737725  -23.02147125817796
C        36.58482481985711  -16.89096412002278  -24.25017111701080
O        35.22928433879309  -21.30954258847035  -23.30594267761486
O        37.84181212667020  -19.95345383216066  -22.75374641404283
O        35.99792577750562  -17.81620794510721  -20.69600415974459
O        34.47025058685694  -17.77659034998806  -23.41606083729628
O        37.60949050600257  -16.03047056311327  -23.81321973592361
H        33.55631538122634  -19.45226047452331  -23.99470620862696
H        36.00104853968477  -19.73824168112188  -24.39742058871933
H        36.28192689255823  -20.06958375525454  -21.40289353324058
H        37.54362982361906  -17.63403622202089  -22.05067362701757
H        35.46686207077088  -16.24415473981397  -22.55514628358574
H        37.00704096338752  -17.81094388901919  -24.67289046915587
H        35.94854182287650  -16.40997588731256  -25.00282183186766
H        36.04456207818749  -21.82359022009681  -23.36750597357212
H        38.47455411583640  -19.73975138506405  -22.05265053628564
H        38.13755167705291  -15.75802928300433  -24.57149426238946
C        29.99139527630534  -20.04493282870039  -20.31120803105112
C        30.65118063540088  -21.23122212459227  -21.03931829157737
C        32.16054725009079  -21.03277795601237  -21.22563936423359
C        32.39979139764583  -19.63627195124619  -21.82293302269199
C        31.77601121780043  -18.60891542414984  -20.87373650697336
C        32.09576530968753  -17.14741049288017  -21.22844015398929
O        30.36295365504773  -22.39268791233039  -20.30450514828784
O        32.62090145797232  -22.06208686283686  -22.05554968808190
O        33.79016068959663  -19.43262782569899  -21.94786360105128
O        30.36630304065208  -18.80339722936390  -20.82822859895572
O        33.18704890231642  -16.69056341190047  -20.47436744282287
H        28.90779583712581  -20.10799731233427  -20.47331997690616
H        30.20401739504221  -21.29392357821808  -22.04335165060673
H        32.66057341594606  -21.08131015499573  -20.24315532394420
H        31.90617749136522  -19.57233237365931  -22.80159681550634
H        32.19994581832763  -18.79002518734980  -19.87875137384409
H        32.27771987945088  -17.04225329581233  -22.30220661296868
H        31.23916538200169  -16.52750223643347  -20.95230122377959
H        30.85143998767580  -23.11651653583962  -20.71949696128947
H        33.50070904264187  -21.82868019223115  -22.39915678673252
H        33.99988037588238  -17.08987653447967  -20.82354130784792
C        31.18945197069210  -15.43565046037341  -17.30791119200637
C        32.55802162431728  -15.20231451324304  -17.11606753230260
N        31.03644692107996  -16.80141651267178  -17.50678459057411
N        33.19306455360644  -16.43328627817200  -17.20677441806397
C        32.25532251857538  -17.36903538937595  -17.44628536383907
H        35.08854574700558  -15.67064731876171  -16.98136727838214
H        34.72822524864778  -17.08996922474873  -15.97395171546048
H        28.98334711982098  -16.73901876635922  -17.56661717034928
H        29.74432996277530  -17.62342153886711  -18.90801389392162
H        32.95621717405251  -23.10137149621162  -13.86052883921865
C        33.04461943437194  -13.92598358594050  -16.89033594598073
C        30.27332496927492  -14.39788200145165  -17.28304907519598
N        32.50179342359894  -18.67178468258825  -17.60255703176799
H        31.76924197642703  -19.29424951309761  -17.92125097461809
C        32.12459179561208  -12.89331865214797  -16.86676733937511
C        30.76547853806139  -13.12498667269104  -17.05703564399718
H        32.46809859580917  -11.88544784693745  -16.69716055019781
H        34.09410170913921  -13.73103615139353  -16.74452212796017
H        30.08064077613220  -12.29265102645439  -17.02966795865252
H        29.21857549375335  -14.56159302163191  -17.42931790722718
H        33.42925446861547  -19.03908661045579  -17.42750642724637

          :  Hamiltonian                  GFN2-xTB          :
         :: total energy            -247.156701164123 Eh    ::
         :: gradient norm              0.000567185166 Eh/a0 ::
         :: HOMO-LUMO gap              3.695554225282 eV    ::
         :: SCC energy              -249.209238823705 Eh    ::
         :: -> dispersion             -0.187620807642 Eh    ::
         :: repulsion energy           2.039372612969 Eh    ::

    * Orbital Energies and Occupations

         #    Occupation            Energy/Eh            Energy/eV
      -------------------------------------------------------------
         1        2.0000           -0.8351270             -22.7250
       ...           ...                  ...                  ...
       197        2.0000           -0.5027631             -13.6809
       198        2.0000           -0.5019579             -13.6590
       199        2.0000           -0.5004476             -13.6179
       200        2.0000           -0.4982201             -13.5573
       201        2.0000           -0.4980194             -13.5518
       202        2.0000           -0.4972080             -13.5297
       203        2.0000           -0.4919081             -13.3855
       204        2.0000           -0.4913299             -13.3698
       205        2.0000           -0.4892745             -13.3138
       206        2.0000           -0.4886033             -13.2956
       207        2.0000           -0.4881299             -13.2827
       208        2.0000           -0.4825694             -13.1314
       209        2.0000           -0.4821927             -13.1211 (HOMO)
       210                         -0.3463836              -9.4256 (LUMO)
       211                         -0.3161248              -8.6022
       212                         -0.3016511              -8.2083
       213                         -0.1906346              -5.1874
       214                         -0.1718698              -4.6768
       215                         -0.1540659              -4.1923
       216                         -0.1448924              -3.9427
       217                         -0.1329960              -3.6190
       218                         -0.1321179              -3.5951
       219                         -0.1220242              -3.3204
       220                         -0.1217348              -3.3126
       ...                                ...                  ...
       360                          0.5922118              16.1149
      -------------------------------------------------------------
                  HL-Gap            0.1358091 Eh            3.6956 eV

     #   Z          covCN         q      C6AA      α(0)
     1   6 C        3.646     0.230    17.311     5.979
     2   6 C        3.729     0.090    19.183     6.253
     3   6 C        3.729     0.099    19.033     6.228
     4   6 C        3.746     0.084    19.258     6.260
     5   6 C        3.753     0.087    19.195     6.248
     6   6 C        3.740    -0.031    21.202     6.570
     7   8 O        1.656    -0.447    21.779     6.300
     8   8 O        1.656    -0.453    21.896     6.317
     9   8 O        1.699    -0.340    19.713     5.994
    10   8 O        1.702    -0.304    19.068     5.896
    11   1 H        0.923     0.068     2.107     2.270
    12   1 H        0.923     0.042     2.424     2.435
    13   1 H        0.923     0.038     2.479     2.462
    14   1 H        0.923     0.050     2.322     2.383
    15   1 H        0.924     0.073     2.051     2.240
    16   1 H        0.805     0.334     0.626     1.243
    17   1 H        0.804     0.333     0.630     1.247
    18   6 C        3.634     0.242    17.185     5.966
    19   6 C        3.727     0.098    19.053     6.232
    20   6 C        3.727     0.098    19.064     6.234
    21   6 C        3.741     0.084    19.260     6.262
    22   6 C        3.736     0.092    19.131     6.242
    23   6 C        3.675     0.064    19.728     6.364
    24   8 O        1.656    -0.446    21.769     6.298
    25   8 O        1.657    -0.452    21.881     6.315
    26   8 O        1.699    -0.340    19.713     5.994
    27   8 O        1.701    -0.327    19.468     5.957
    28   8 O        1.656    -0.441    21.666     6.284
    29   1 H        0.923     0.050     2.315     2.379
    30   1 H        0.924     0.048     2.347     2.396
    31   1 H        0.923     0.051     2.309     2.376
    32   1 H        0.924     0.077     2.006     2.215
    33   1 H        0.923     0.084     1.942     2.180
    34   1 H        0.924     0.038     2.481     2.463
    35   1 H        0.924     0.052     2.298     2.371
    36   1 H        0.805     0.327     0.645     1.261
    37   1 H        0.805     0.324     0.652     1.268
    38   1 H        0.805     0.311     0.689     1.304
    39   6 C        3.644     0.236    17.238     5.968
    40   6 C        3.727     0.093    19.138     6.246
    41   6 C        3.730     0.098    19.057     6.232
    42   6 C        3.743     0.090    19.158     6.244
    43   6 C        3.755     0.083    19.246     6.255
    44   6 C        3.674     0.070    19.635     6.350
    45   8 O        1.656    -0.443    21.704     6.289
    46   8 O        1.656    -0.451    21.867     6.313
    47   8 O        1.702    -0.330    19.530     5.967
    48   8 O        1.701    -0.334    19.604     5.978
    49   8 O        1.655    -0.455    21.955     6.325
    50   1 H        0.924     0.060     2.198     2.319
    51   1 H        0.923     0.049     2.334     2.389
    52   1 H        0.923     0.033     2.540     2.492
    53   1 H        0.924     0.044     2.402     2.424
    54   1 H        0.924     0.044     2.402     2.424
    55   1 H        0.924     0.055     2.256     2.349
    56   1 H        0.924     0.066     2.133     2.284
    57   1 H        0.805     0.335     0.624     1.241
    58   1 H        0.804     0.323     0.655     1.271
    59   6 C        3.647     0.230    17.308     5.978
    60   6 C        3.729     0.090    19.184     6.253
    61   6 C        3.729     0.099    19.033     6.228
    62   6 C        3.745     0.083    19.259     6.260
    63   6 C        3.753     0.087    19.189     6.247
    64   6 C        3.741    -0.031    21.206     6.570
    65   8 O        1.656    -0.447    21.782     6.300
    66   8 O        1.656    -0.453    21.896     6.317
    67   8 O        1.699    -0.340    19.714     5.995
    68   8 O        1.702    -0.304    19.065     5.895
    69   1 H        0.923     0.068     2.110     2.272
    70   1 H        0.923     0.042     2.423     2.434
    71   1 H        0.923     0.038     2.481     2.463
    72   1 H        0.923     0.050     2.320     2.382
    73   1 H        0.924     0.072     2.061     2.245
    74   1 H        0.805     0.334     0.626     1.243
    75   1 H        0.804     0.333     0.630     1.247
    76   6 C        3.634     0.242    17.184     5.966
    77   6 C        3.727     0.098    19.054     6.232
    78   6 C        3.727     0.098    19.064     6.234
    79   6 C        3.741     0.084    19.258     6.261
    80   6 C        3.736     0.092    19.132     6.242
    81   6 C        3.675     0.064    19.728     6.364
    82   8 O        1.656    -0.446    21.768     6.298
    83   8 O        1.657    -0.452    21.876     6.314
    84   8 O        1.699    -0.340    19.711     5.994
    85   8 O        1.701    -0.327    19.469     5.957
    86   8 O        1.656    -0.441    21.666     6.283
    87   1 H        0.923     0.050     2.316     2.380
    88   1 H        0.924     0.048     2.347     2.396
    89   1 H        0.923     0.051     2.307     2.375
    90   1 H        0.924     0.077     2.008     2.216
    91   1 H        0.923     0.084     1.942     2.180
    92   1 H        0.924     0.038     2.480     2.463
    93   1 H        0.924     0.052     2.299     2.371
    94   1 H        0.805     0.327     0.645     1.261
    95   1 H        0.805     0.324     0.652     1.269
    96   1 H        0.805     0.311     0.689     1.304
    97   6 C        3.644     0.236    17.235     5.967
    98   6 C        3.727     0.093    19.137     6.245
    99   6 C        3.730     0.098    19.056     6.232
   100   6 C        3.743     0.090    19.157     6.244
   101   6 C        3.755     0.084    19.237     6.254
   102   6 C        3.674     0.070    19.632     6.349
   103   8 O        1.656    -0.443    21.703     6.289
   104   8 O        1.656    -0.451    21.867     6.313
   105   8 O        1.702    -0.330    19.529     5.966
   106   8 O        1.701    -0.335    19.608     5.978
   107   8 O        1.655    -0.456    21.961     6.326
   108   1 H        0.924     0.060     2.200     2.319
   109   1 H        0.923     0.049     2.335     2.390
   110   1 H        0.923     0.033     2.541     2.493
   111   1 H        0.923     0.043     2.403     2.424
   112   1 H        0.924     0.043     2.415     2.430
   113   1 H        0.924     0.055     2.255     2.348
   114   1 H        0.924     0.065     2.137     2.286
   115   1 H        0.805     0.335     0.624     1.241
   116   1 H        0.804     0.333     0.630     1.247
   117   1 H        0.804     0.324     0.654     1.271
   118   6 C        3.089     0.043    26.930     8.506
   119   6 C        3.088     0.044    26.918     8.504
   120   7 N        2.819    -0.010    21.455     6.879
   121   7 N        2.820    -0.010    21.449     6.879
   122   6 C        2.993     0.205    23.654     7.978
   123   1 H        0.925     0.115     1.654     2.011
   124   1 H        0.924     0.094     1.840     2.121
   125   1 H        0.924     0.115     1.652     2.010
   126   1 H        0.924     0.094     1.843     2.123
   127   1 H        0.804     0.333     0.630     1.247
   128   6 C        2.911    -0.036    28.895     8.814
   129   6 C        2.911    -0.036    28.906     8.816
   130   7 N        2.637    -0.272    27.045     7.724
   131   1 H        0.860     0.237     0.934     1.514
   132   6 C        2.926    -0.025    28.631     8.775
   133   6 C        2.926    -0.025    28.633     8.775
   134   1 H        0.926     0.070     2.088     2.260
   135   1 H        0.926     0.063     2.166     2.302
   136   1 H        0.926     0.070     2.089     2.260
   137   1 H        0.926     0.062     2.171     2.304
   138   1 H        0.860     0.238     0.933     1.513

Wiberg/Mayer (AO) data.
largest (>0.10) Wiberg bond orders for each atom

     #   Z sym  total        # sym  WBO       # sym  WBO       # sym  WBO
 ---------------------------------------------------------------------------
     1   6 C    3.925 --    10 O    0.989    26 O    0.970     2 C    0.951
                            11 H    0.944
     2   6 C    3.963 --     7 O    1.002     3 C    0.967    12 H    0.955
                             1 C    0.951
     3   6 C    3.966 --     8 O    1.010     2 C    0.967     4 C    0.963
                            13 H    0.951
     4   6 C    3.938 --     5 C    0.963     3 C    0.963     9 O    0.958
                            14 H    0.952
     5   6 C    3.949 --     6 C    0.983    10 O    0.967     4 C    0.963
                            15 H    0.947
     6   6 C    3.950 --   120 N    0.984     5 C    0.983   125 H    0.955
                           126 H    0.949
     7   8 O    1.966 --     2 C    1.002    16 H    0.868
     8   8 O    1.955 --     3 C    1.010    17 H    0.850
     9   8 O    2.106 --    97 C    0.958     4 C    0.958
    10   8 O    2.096 --     1 C    0.989     5 C    0.967
    11   1 H    0.995 --     1 C    0.944
    12   1 H    0.998 --     2 C    0.955
    13   1 H    0.999 --     3 C    0.951
    14   1 H    0.997 --     4 C    0.952
    15   1 H    0.995 --     5 C    0.947
    16   1 H    0.888 --     7 O    0.868
    17   1 H    0.889 --     8 O    0.850
    18   6 C    3.928 --    27 O    0.991    19 C    0.962    47 O    0.962
                            29 H    0.943
    19   6 C    3.961 --    24 O    0.996    20 C    0.970    18 C    0.962
                            30 H    0.953
    20   6 C    3.963 --    25 O    1.007    19 C    0.970    21 C    0.957
                            31 H    0.951
    21   6 C    3.933 --    22 C    0.977    20 C    0.957    26 O    0.951
                            32 H    0.949
    22   6 C    3.942 --    23 C    0.978    21 C    0.977    27 O    0.958
                            33 H    0.952
    23   6 C    3.959 --    28 O    1.005    22 C    0.978    35 H    0.968
                            34 H    0.966
    24   8 O    1.966 --    19 C    0.996    36 H    0.876
    25   8 O    1.957 --    20 C    1.007    37 H    0.862
    26   8 O    2.084 --     1 C    0.970    21 C    0.951
    27   8 O    2.102 --    18 C    0.991    22 C    0.958
    28   8 O    1.950 --    23 C    1.005    38 H    0.889
    29   1 H    0.997 --    18 C    0.943
    30   1 H    0.997 --    19 C    0.953
    31   1 H    0.997 --    20 C    0.951
    32   1 H    0.994 --    21 C    0.949
    33   1 H    0.993 --    22 C    0.952
    34   1 H    0.999 --    23 C    0.966
    35   1 H    0.997 --    23 C    0.968
    36   1 H    0.893 --    24 O    0.876
    37   1 H    0.894 --    25 O    0.862
    38   1 H    0.903 --    28 O    0.889
    39   6 C    3.922 --    48 O    0.989    67 O    0.958    40 C    0.956
                            50 H    0.945
    40   6 C    3.962 --    45 O    1.001    41 C    0.969    39 C    0.956
                            51 H    0.955
    41   6 C    3.968 --    46 O    1.011    40 C    0.969    42 C    0.961
                            52 H    0.953
    42   6 C    3.946 --    47 O    0.972    43 C    0.967    41 C    0.961
                            53 H    0.953
    43   6 C    3.936 --    44 C    0.972    42 C    0.967    48 O    0.952
                            54 H    0.946
    44   6 C    3.958 --    49 O    1.015    43 C    0.972    55 H    0.967
                            56 H    0.967
    45   8 O    1.967 --    40 C    1.001    57 H    0.868
    46   8 O    1.953 --    41 C    1.011   127 H    0.851
    47   8 O    2.097 --    42 C    0.972    18 C    0.962
    48   8 O    2.094 --    39 C    0.989    43 C    0.952
    49   8 O    1.953 --    44 C    1.015    58 H    0.864
    50   1 H    0.996 --    39 C    0.945
    51   1 H    0.997 --    40 C    0.955
    52   1 H    0.999 --    41 C    0.953
    53   1 H    0.998 --    42 C    0.953
    54   1 H    0.998 --    43 C    0.946
    55   1 H    0.997 --    44 C    0.967
    56   1 H    0.995 --    44 C    0.967
    57   1 H    0.888 --    45 O    0.868
    58   1 H    0.895 --    49 O    0.864
    59   6 C    3.925 --    68 O    0.989    84 O    0.970    60 C    0.951
                            69 H    0.944
    60   6 C    3.963 --    65 O    1.002    61 C    0.967    70 H    0.955
                            59 C    0.951
    61   6 C    3.966 --    66 O    1.010    60 C    0.967    62 C    0.963
                            71 H    0.951
    62   6 C    3.938 --    63 C    0.963    61 C    0.963    67 O    0.959
                            72 H    0.952
    63   6 C    3.949 --    64 C    0.982    68 O    0.967    62 C    0.963
                            73 H    0.947
    64   6 C    3.950 --   121 N    0.984    63 C    0.982   123 H    0.955
                           124 H    0.949
    65   8 O    1.965 --    60 C    1.002    74 H    0.868
    66   8 O    1.955 --    61 C    1.010    75 H    0.850
    67   8 O    2.106 --    62 C    0.959    39 C    0.958
    68   8 O    2.097 --    59 C    0.989    63 C    0.967
    69   1 H    0.995 --    59 C    0.944
    70   1 H    0.998 --    60 C    0.955
    71   1 H    0.999 --    61 C    0.951
    72   1 H    0.997 --    62 C    0.952
    73   1 H    0.995 --    63 C    0.947
    74   1 H    0.888 --    65 O    0.868
    75   1 H    0.889 --    66 O    0.850
    76   6 C    3.928 --    85 O    0.991    77 C    0.962   105 O    0.962
                            87 H    0.943
    77   6 C    3.961 --    82 O    0.996    78 C    0.970    76 C    0.962
                            88 H    0.953
    78   6 C    3.963 --    83 O    1.007    77 C    0.970    79 C    0.957
                            89 H    0.951
    79   6 C    3.934 --    80 C    0.977    78 C    0.957    84 O    0.951
                            90 H    0.949
    80   6 C    3.942 --    81 C    0.978    79 C    0.977    85 O    0.957
                            91 H    0.952
    81   6 C    3.959 --    86 O    1.005    80 C    0.978    93 H    0.968
                            92 H    0.966
    82   8 O    1.966 --    77 C    0.996    94 H    0.876
    83   8 O    1.957 --    78 C    1.007    95 H    0.862
    84   8 O    2.085 --    59 C    0.970    79 C    0.951
    85   8 O    2.102 --    76 C    0.991    80 C    0.957
    86   8 O    1.950 --    81 C    1.005    96 H    0.889
    87   1 H    0.997 --    76 C    0.943
    88   1 H    0.997 --    77 C    0.953
    89   1 H    0.997 --    78 C    0.951
    90   1 H    0.994 --    79 C    0.949
    91   1 H    0.993 --    80 C    0.952
    92   1 H    0.999 --    81 C    0.966
    93   1 H    0.997 --    81 C    0.968
    94   1 H    0.893 --    82 O    0.876
    95   1 H    0.894 --    83 O    0.862
    96   1 H    0.903 --    86 O    0.889
    97   6 C    3.922 --   106 O    0.988     9 O    0.958    98 C    0.956
                           108 H    0.945
    98   6 C    3.962 --   103 O    1.001    99 C    0.969    97 C    0.956
                           109 H    0.955
    99   6 C    3.968 --   104 O    1.011    98 C    0.969   100 C    0.961
                           110 H    0.953
   100   6 C    3.946 --   105 O    0.972   101 C    0.967    99 C    0.961
                           111 H    0.953
   101   6 C    3.937 --   102 C    0.972   100 C    0.967   106 O    0.953
                           112 H    0.947
   102   6 C    3.958 --   107 O    1.015   101 C    0.972   113 H    0.968
                           114 H    0.967
   103   8 O    1.967 --    98 C    1.001   115 H    0.868
   104   8 O    1.953 --    99 C    1.011   116 H    0.851
   105   8 O    2.097 --   100 C    0.972    76 C    0.962
   106   8 O    2.094 --    97 C    0.988   101 C    0.953
   107   8 O    1.953 --   102 C    1.015   117 H    0.864
   108   1 H    0.996 --    97 C    0.945
   109   1 H    0.997 --    98 C    0.955
   110   1 H    0.999 --    99 C    0.953
   111   1 H    0.998 --   100 C    0.953
   112   1 H    0.998 --   101 C    0.947
   113   1 H    0.997 --   102 C    0.968
   114   1 H    0.995 --   102 C    0.967
   115   1 H    0.888 --   103 O    0.868
   116   1 H    0.889 --   104 O    0.851
   117   1 H    0.895 --   107 O    0.864
   118   6 C    3.948 --   129 C    1.367   119 C    1.287   120 N    1.088
   119   6 C    3.949 --   128 C    1.367   118 C    1.287   121 N    1.088
   120   7 N    3.604 --   122 C    1.262   118 C    1.088     6 C    0.984
   121   7 N    3.604 --   122 C    1.261   119 C    1.088    64 C    0.984
   122   6 C    3.972 --   130 N    1.281   120 N    1.262   121 N    1.261
   123   1 H    0.986 --    64 C    0.955
   124   1 H    0.990 --    64 C    0.949
   125   1 H    0.986 --     6 C    0.955
   126   1 H    0.990 --     6 C    0.949
   127   1 H    0.889 --    46 O    0.851
   128   6 C    3.986 --   132 C    1.464   119 C    1.367   135 H    0.962
                           129 C    0.114
   129   6 C    3.986 --   133 C    1.463   118 C    1.367   137 H    0.962
                           128 C    0.114
   130   7 N    3.365 --   122 C    1.281   131 H    0.890   138 H    0.890
   131   1 H    0.943 --   130 N    0.890
   132   6 C    3.982 --   128 C    1.464   133 C    1.409   134 H    0.968
   133   6 C    3.982 --   129 C    1.463   132 C    1.409   136 H    0.968
   134   1 H    0.995 --   132 C    0.968
   135   1 H    0.995 --   128 C    0.962
   136   1 H    0.995 --   133 C    0.968
   137   1 H    0.996 --   129 C    0.962
   138   1 H    0.943 --   130 N    0.890
 ---------------------------------------------------------------------------

molecular dipole:
                 x           y           z       tot (Debye)
 q only:       61.297     -34.598     -33.241
   full:       61.491     -35.614     -33.384     199.555

           -------------------------------------------------
          | TOTAL ENERGY             -247.156701164123 Eh   |
          | GRADIENT NORM               0.000567185166 Eh/α |
          | HOMO-LUMO GAP               3.695554225282 eV   |
           -------------------------------------------------

 * finished run on 2022/03/19 at 13:23:02.602
