   * xtb version 6.4.1 (bd6e46d) compiled by 'conda@4901f00b25ba' on 2021-06-10
          program call               : /jet/home/maihfly/.conda/envs/Cyclodextrins-Env/bin/xtb aBiCyDNH_opt_xtb.xyz --chrg 0 --uhf 0 --opt
          number of atoms            :                   137
          number of electrons        :                   418
          charge                     :                     0
          spin                       :                   0.0

   ID    Z sym.   atoms
    1    6 C      1-6, 18-23, 39-44, 59-64, 76-81, 97-102, 118, 119, 122,
                  128, 129, 132, 133
    2    8 O      7-10, 24-28, 45-49, 65-68, 82-86, 103-107
    3    1 H      11-17, 29-38, 50-58, 69-75, 87-96, 108-117, 123-127, 131,
                  134-137
    4    7 N      120, 121, 130

          :  Hamiltonian                  GFN2-xTB          :
 * total energy  :  -246.9433711 Eh     change       -0.2122988E-08 Eh
 * total energy  :  -246.9720923 Eh     change       -0.2872124E-01 Eh
 * total energy  :  -246.9840364 Eh     change       -0.1194411E-01 Eh
 * total energy  :  -246.9870775 Eh     change       -0.3041086E-02 Eh
 * total energy  :  -246.9888293 Eh     change       -0.1751763E-02 Eh
 * total energy  :  -246.9899723 Eh     change       -0.1143037E-02 Eh
 * total energy  :  -246.9907820 Eh     change       -0.8096525E-03 Eh
 * total energy  :  -246.9912959 Eh     change       -0.5139008E-03 Eh
 * total energy  :  -246.9916105 Eh     change       -0.3146393E-03 Eh
 * total energy  :  -246.9918507 Eh     change       -0.2401734E-03 Eh
 * total energy  :  -247.0133863 Eh     change       -0.4536653E-04 Eh
 * total energy  :  -247.0134136 Eh     change       -0.2727882E-04 Eh
 * total energy  :  -247.0134399 Eh     change       -0.2627742E-04 Eh
 * total energy  :  -247.0134614 Eh     change       -0.2156978E-04 Eh
 * total energy  :  -247.0134794 Eh     change       -0.1799828E-04 Eh
 * total energy  :  -247.0134933 Eh     change       -0.1389658E-04 Eh
 * total energy  :  -247.0135052 Eh     change       -0.1188747E-04 Eh
 * total energy  :  -247.0135119 Eh     change       -0.6743779E-05 Eh
 * total energy  :  -247.0135166 Eh     change       -0.4676497E-05 Eh
   *** GEOMETRY OPTIMIZATION CONVERGED AFTER 68 ITERATIONS ***

 final structure:
================
137
 xtb: 6.4.1 (bd6e46d)
C        28.19973253918812  -19.60314459445545  -16.17064107001973
C        27.53491818765006  -20.67189807489783  -17.05920667960489
C        28.43942481137364  -21.02690025011084  -18.24422827357471
C        28.84913532211805  -19.73491734611045  -18.97918547385962
C        29.52946932012975  -18.82320455955728  -17.94295967562564
C        30.07809773321470  -17.51153819744674  -18.52392377339079
O        27.28554189012365  -21.81050119730405  -16.26986981034099
O        27.72283111572873  -21.93143762170494  -19.04655780765792
O        29.76445804948546  -20.02789657865827  -20.01984628260428
O        28.58907738661262  -18.49333977610558  -16.92836143135644
H        27.48084500874358  -19.22990110138624  -15.43346421790287
H        26.59133977667514  -20.26611688494516  -17.45308157464209
H        29.35663451292794  -21.49928889701571  -17.86072600251834
H        27.95865888416006  -19.23319148140478  -19.38000285732702
H        30.36331122735960  -19.38398578388876  -17.49850245743962
H        27.01414887723763  -22.50931002646889  -16.88162397971163
H        28.31200603057072  -22.26706261122282  -19.74360711769205
C        31.61446556926764  -20.57152295093337  -12.36663184934600
C        30.77085007716259  -21.82691334204361  -12.62837274929238
C        30.10270772723815  -21.65720042356980  -13.98948516156282
C        29.36556746265009  -20.31478654345437  -14.14071105546353
C        30.09206025605867  -19.11937976474724  -13.48363243000911
C        29.13619189357758  -17.98840365102841  -13.05501558394666
O        31.62466561153106  -22.94438555176095  -12.62312379592902
O        29.22792121129977  -22.73553280734445  -14.20124653724330
O        29.32503950535967  -20.16047939344917  -15.55113129473337
O        30.77341045327039  -19.45460239807583  -12.27281028800846
O        28.24462061539851  -17.58100779769271  -14.04742516211061
H        32.11520317821229  -20.65267420062884  -11.39198525400698
H        30.00652353740110  -21.91602086217676  -11.84346828225117
H        30.90174540206832  -21.65919782712986  -14.74908359881051
H        28.35253656434460  -20.40944661260338  -13.72981467658328
H        30.81781491026580  -18.74428511504733  -14.22054244257985
H        28.52738109687533  -18.35380006186159  -12.22376777728007
H        29.75025655517108  -17.15063378354133  -12.69937500006902
H        31.12128156536512  -23.68060773978638  -12.99644413040512
H        28.62552877866575  -22.49784516167373  -14.92749926159449
H        28.74244175220474  -17.20800799286771  -14.78939575749460
C        36.30275667171680  -19.48484550846539  -14.53371967878863
C        36.12009102542133  -20.94041467223827  -14.07776951374944
C        34.62242690888808  -21.22803737721281  -14.04503988587448
C        33.90252068645014  -20.21940414143110  -13.13670606270699
C        34.30806532314822  -18.76513041303406  -13.45341053854769
C        33.91773108398721  -17.76260890544329  -12.34771668188395
O        36.79082603704646  -21.80097986980820  -14.96158819253058
O        34.43280012160154  -22.54721121293005  -13.59856597280097
O        32.52553525073131  -20.42828720704568  -13.40831877293714
O        35.71575894131836  -18.62318394512665  -13.59616967576248
O        32.60860359106590  -17.28893636770022  -12.43305479714810
H        37.36867529279414  -19.22402212442685  -14.52983801373312
H        36.53232765317603  -21.04248165256506  -13.06212235881235
H        34.22334008092392  -21.10276050056909  -15.06365368349146
H        34.13343626467827  -20.45853822080478  -12.08876263524835
H        33.80650776020244  -18.48453315876257  -14.39104500249081
H        34.12333819784909  -18.21226297468746  -11.36600022483746
H        34.56810002601226  -16.89178840823240  -12.46271296703730
H        36.41628959081641  -22.68237645006760  -14.82746543445121
H        31.98455065470528  -18.00986025043868  -12.25171253219612
C        37.05944864801374  -17.87518553005238  -19.47897884978633
C        38.04012584713644  -18.78794440269449  -18.72071700112167
C        37.28066878726801  -19.58285736768668  -17.65526598743843
C        36.49768267237196  -18.60494216850253  -16.75988217198583
C        35.55795274800803  -17.77720964154607  -17.65460477614433
C        34.74029266672245  -16.75026172093530  -16.86657119313487
O        38.64659181701582  -19.65187208182858  -19.65111764641450
O        38.23321026491485  -20.34260269017807  -16.95221616214848
O        35.73901772074177  -19.32655995088343  -15.80410689504871
O        36.35441101338037  -17.04958960391180  -18.59211088933747
H        37.61199030108602  -17.19964155727847  -20.14239767962642
H        38.79967648346724  -18.16748638765045  -18.22243110416247
H        36.55414153839902  -20.24031833255297  -18.15520469227454
H        37.20286977431289  -17.92931862079674  -16.25573030940974
H        34.87984173592333  -18.44475524757626  -18.19913874703423
H        39.10070202415178  -20.33068757448119  -19.13274295105872
H        37.77322946173928  -20.90251321031113  -16.30398727660880
C        33.91956256617444  -19.28136033226088  -23.43045036507760
C        35.18260145360108  -20.15396211790997  -23.40064754028551
C        35.80436653268037  -20.01886476188097  -22.01460977232299
C        36.02372460849563  -18.55646753024855  -21.59046003874284
C        34.82149166249400  -17.65118054507257  -21.93001953416177
C        35.17783396893848  -16.15514197399080  -22.03761409758479
O        34.80105869761063  -21.48451483817003  -23.65344856181845
O        37.01510386960127  -20.73223170558341  -21.98855988298072
O        36.18547603872200  -18.69806660047867  -20.18929826143623
O        34.25339261496823  -17.94009484913218  -23.21498324091571
O        35.97226255690169  -15.65714595967306  -21.00433228445096
H        33.46115094870657  -19.31958680651501  -24.42840135604733
H        35.88792397273568  -19.79795156569791  -24.16505482038010
H        35.09355775370398  -20.44523209310262  -21.28837960098200
H        36.94001998515723  -18.16802316716844  -22.05485653590771
H        34.07642033433276  -17.81744536831928  -21.13849670161326
H        35.74869678841907  -16.00734422997066  -22.95911999228246
H        34.23701669329185  -15.59258379451462  -22.12197241117578
H        35.55765786439979  -22.03623125023350  -23.41291359617970
H        37.51181056175228  -20.44709776304434  -21.20234862568612
H        35.58098714620272  -15.88274393089384  -20.14818134125103
C        29.22780615124300  -20.26743504653126  -21.29546395582208
C        29.88048275936496  -21.52558236221258  -21.88906954488524
C        31.38302010463672  -21.27261852901748  -21.95236590144904
C        31.68959324058691  -19.99284627622159  -22.74557496065521
C        30.80310902576819  -18.80811699577972  -22.31237002122349
C        30.80242532189405  -17.62387719618604  -23.30184680738564
O        29.57673365201515  -22.64027223301767  -21.08943629341071
O        32.00826855440878  -22.38663805069180  -22.53805218856071
O        33.05372471804263  -19.75575918840631  -22.44877800001189
O        29.44076050883518  -19.18415917219643  -22.15489282365397
O        31.74590857827275  -16.64240591408889  -22.99735260407635
H        28.13903246000971  -20.39096189274343  -21.25393067159580
H        29.49088031282162  -21.67072059187672  -22.90805690462198
H        31.75265106913371  -21.12146340248870  -20.92594951585189
H        31.55164873157101  -20.19725897433705  -23.81735012476329
H        31.19963074834321  -18.44843498965963  -21.35239388827233
H        30.92310794795213  -17.99727816623957  -24.32809240302616
H        29.82244274418543  -17.14593395670249  -23.22424017683311
H        30.21790112536425  -23.32724053549451  -21.31747196517682
H        32.90783725976082  -22.12809816024301  -22.79915684104953
H        32.64057425561590  -16.99632569048740  -23.13904291752680
C        31.14740649267103  -16.29441442316161  -16.62465394693824
C        32.46269921980840  -16.14354935183131  -16.15548029306927
N        31.21316529148486  -17.03964102623359  -17.78261135112127
N        33.30212380921442  -16.82197772235926  -17.02420094670008
C        32.54292960187804  -17.39776520047834  -18.02170200050683
H        35.08923891154425  -15.75512891567739  -17.17403412958242
H        34.94920024097444  -16.87165523809984  -15.79950822961111
H        29.29163966161779  -16.75497328325478  -18.49029267045488
H        30.36631628958623  -17.67116055283254  -19.56459430282358
H        33.49898441650980  -22.66521203726151  -13.35222846088793
C        32.72483452929519  -15.41731571893903  -15.01003818977846
C        30.07671511782223  -15.72461734387573  -15.96498004809213
N        33.01069706796572  -18.11970164828234  -18.95894388440319
H        32.30725361779262  -18.52389093274047  -19.56420541624069
C        31.64493761040886  -14.86153407932136  -14.33747099496727
C        30.34844081507412  -15.00837256803058  -14.80473861125491
H        31.82375216811854  -14.30548563257400  -13.43151936622234
H        33.72715684929219  -15.28351794699337  -14.63934010813829
H        29.53144980570763  -14.55626341334748  -14.26348451779359
H        29.07142353064552  -15.81946604226499  -16.34559792851977

          :  Hamiltonian                  GFN2-xTB          :
         :: total energy            -247.013516624548 Eh    ::
         :: gradient norm              0.000419312035 Eh/a0 ::
         :: HOMO-LUMO gap              3.450661477270 eV    ::
         :: SCC energy              -249.047328221323 Eh    ::
         :: -> dispersion             -0.185079954379 Eh    ::
         :: repulsion energy           2.021479341425 Eh    ::

    * Orbital Energies and Occupations

         #    Occupation            Energy/Eh            Energy/eV
      -------------------------------------------------------------
         1        2.0000           -0.7503703             -20.4186
       ...           ...                  ...                  ...
       197        2.0000           -0.4229636             -11.5094
       198        2.0000           -0.4221080             -11.4861
       199        2.0000           -0.4206850             -11.4474
       200        2.0000           -0.4199653             -11.4278
       201        2.0000           -0.4193649             -11.4115
       202        2.0000           -0.4169544             -11.3459
       203        2.0000           -0.4140769             -11.2676
       204        2.0000           -0.4127599             -11.2318
       205        2.0000           -0.4085717             -11.1178
       206        2.0000           -0.4039528             -10.9921
       207        2.0000           -0.3897576             -10.6058
       208        2.0000           -0.3786296             -10.3030
       209        2.0000           -0.3565064              -9.7010 (HOMO)
       210                         -0.2296969              -6.2504 (LUMO)
       211                         -0.2124408              -5.7808
       212                         -0.1713621              -4.6630
       213                         -0.0892603              -2.4289
       214                         -0.0625438              -1.7019
       215                         -0.0599425              -1.6311
       216                         -0.0586528              -1.5960
       217                         -0.0549273              -1.4946
       218                         -0.0527526              -1.4355
       219                         -0.0512217              -1.3938
       220                         -0.0407499              -1.1089
       ...                                ...                  ...
       359                          0.6995953              19.0370
      -------------------------------------------------------------
                  HL-Gap            0.1268095 Eh            3.4507 eV

     #   Z          covCN         q      C6AA      α(0)
     1   6 C        3.643     0.231    17.310     5.981
     2   6 C        3.727     0.092    19.150     6.248
     3   6 C        3.730     0.096    19.078     6.235
     4   6 C        3.740     0.092    19.139     6.242
     5   6 C        3.760     0.101    18.969     6.209
     6   6 C        3.740     0.002    20.630     6.481
     7   8 O        1.656    -0.447    21.773     6.299
     8   8 O        1.656    -0.464    22.135     6.351
     9   8 O        1.701    -0.333    19.587     5.975
    10   8 O        1.701    -0.326    19.447     5.954
    11   1 H        0.924     0.074     2.042     2.235
    12   1 H        0.923     0.040     2.455     2.450
    13   1 H        0.923     0.041     2.440     2.443
    14   1 H        0.924     0.041     2.431     2.438
    15   1 H        0.923     0.056     2.243     2.342
    16   1 H        0.805     0.327     0.646     1.262
    17   1 H        0.804     0.330     0.637     1.254
    18   6 C        3.637     0.245    17.135     5.955
    19   6 C        3.727     0.094    19.119     6.243
    20   6 C        3.733     0.102    18.984     6.219
    21   6 C        3.731     0.093    19.129     6.243
    22   6 C        3.740     0.086    19.226     6.256
    23   6 C        3.675     0.067    19.678     6.356
    24   8 O        1.656    -0.446    21.759     6.297
    25   8 O        1.655    -0.458    22.013     6.334
    26   8 O        1.704    -0.334    19.605     5.978
    27   8 O        1.701    -0.345    19.792     6.006
    28   8 O        1.656    -0.439    21.626     6.278
    29   1 H        0.923     0.047     2.353     2.399
    30   1 H        0.923     0.044     2.394     2.419
    31   1 H        0.923     0.054     2.274     2.359
    32   1 H        0.924     0.053     2.284     2.363
    33   1 H        0.923     0.052     2.289     2.366
    34   1 H        0.924     0.067     2.117     2.275
    35   1 H        0.923     0.052     2.295     2.369
    36   1 H        0.805     0.329     0.640     1.257
    37   1 H        0.804     0.328     0.641     1.258
    38   1 H        0.805     0.311     0.688     1.303
    39   6 C        3.644     0.238    17.211     5.963
    40   6 C        3.728     0.095    19.103     6.240
    41   6 C        3.733     0.101    19.006     6.223
    42   6 C        3.734     0.092    19.137     6.244
    43   6 C        3.742     0.087    19.200     6.251
    44   6 C        3.674     0.076    19.534     6.333
    45   8 O        1.656    -0.445    21.751     6.296
    46   8 O        1.655    -0.458    22.010     6.333
    47   8 O        1.704    -0.333    19.582     5.975
    48   8 O        1.702    -0.337    19.650     5.985
    49   8 O        1.656    -0.447    21.789     6.301
    50   1 H        0.924     0.057     2.232     2.337
    51   1 H        0.923     0.040     2.449     2.447
    52   1 H        0.923     0.053     2.289     2.366
    53   1 H        0.923     0.036     2.498     2.472
    54   1 H        0.923     0.057     2.234     2.337
    55   1 H        0.923     0.027     2.629     2.536
    56   1 H        0.924     0.073     2.057     2.243
    57   1 H        0.805     0.332     0.633     1.250
    58   1 H        0.804     0.312     0.686     1.301
    59   6 C        3.638     0.230    17.333     5.989
    60   6 C        3.728     0.093    19.130     6.244
    61   6 C        3.730     0.094    19.112     6.241
    62   6 C        3.742     0.091    19.140     6.241
    63   6 C        3.751     0.083    19.259     6.258
    64   6 C        3.740    -0.004    20.720     6.495
    65   8 O        1.656    -0.445    21.747     6.295
    66   8 O        1.655    -0.464    22.138     6.352
    67   8 O        1.702    -0.327    19.471     5.958
    68   8 O        1.700    -0.330    19.528     5.966
    69   1 H        0.924     0.069     2.096     2.264
    70   1 H        0.923     0.038     2.472     2.459
    71   1 H        0.923     0.046     2.373     2.409
    72   1 H        0.923     0.038     2.470     2.458
    73   1 H        0.924     0.105     1.737     2.061
    74   1 H        0.805     0.326     0.648     1.265
    75   1 H        0.804     0.329     0.641     1.258
    76   6 C        3.635     0.245    17.150     5.959
    77   6 C        3.727     0.095    19.111     6.242
    78   6 C        3.735     0.100    19.012     6.223
    79   6 C        3.731     0.094    19.120     6.242
    80   6 C        3.737     0.077    19.368     6.280
    81   6 C        3.675     0.069    19.648     6.351
    82   8 O        1.656    -0.447    21.790     6.301
    83   8 O        1.655    -0.458    22.004     6.332
    84   8 O        1.706    -0.324    19.409     5.948
    85   8 O        1.701    -0.346    19.809     6.009
    86   8 O        1.656    -0.440    21.640     6.280
    87   1 H        0.923     0.045     2.387     2.416
    88   1 H        0.923     0.042     2.424     2.435
    89   1 H        0.923     0.057     2.238     2.339
    90   1 H        0.923     0.048     2.339     2.392
    91   1 H        0.923     0.073     2.051     2.240
    92   1 H        0.924     0.065     2.143     2.289
    93   1 H        0.923     0.049     2.339     2.392
    94   1 H        0.805     0.327     0.645     1.261
    95   1 H        0.804     0.329     0.641     1.258
    96   1 H        0.805     0.314     0.681     1.296
    97   6 C        3.644     0.238    17.203     5.962
    98   6 C        3.727     0.094    19.115     6.242
    99   6 C        3.734     0.102    18.986     6.219
   100   6 C        3.734     0.092    19.146     6.245
   101   6 C        3.743     0.089    19.180     6.248
   102   6 C        3.674     0.074    19.566     6.339
   103   8 O        1.656    -0.448    21.796     6.302
   104   8 O        1.655    -0.455    21.943     6.324
   105   8 O        1.705    -0.329    19.501     5.962
   106   8 O        1.701    -0.334    19.595     5.976
   107   8 O        1.655    -0.448    21.797     6.303
   108   1 H        0.924     0.059     2.216     2.328
   109   1 H        0.923     0.042     2.428     2.437
   110   1 H        0.923     0.054     2.272     2.357
   111   1 H        0.923     0.036     2.497     2.471
   112   1 H        0.923     0.051     2.307     2.375
   113   1 H        0.923     0.025     2.658     2.549
   114   1 H        0.924     0.076     2.022     2.224
   115   1 H        0.805     0.332     0.632     1.249
   116   1 H        0.804     0.327     0.644     1.261
   117   1 H        0.804     0.315     0.678     1.294
   118   6 C        3.035     0.042    27.024     8.527
   119   6 C        3.054     0.036    27.133     8.543
   120   7 N        2.811    -0.098    23.145     7.145
   121   7 N        2.804    -0.073    22.659     7.070
   122   6 C        2.905     0.207    23.617     7.968
   123   1 H        0.923     0.073     2.050     2.239
   124   1 H        0.924     0.074     2.045     2.236
   125   1 H        0.924     0.076     2.017     2.221
   126   1 H        0.924     0.073     2.058     2.243
   127   1 H        0.804     0.326     0.647     1.263
   128   6 C        2.912    -0.048    29.188     8.859
   129   6 C        2.911    -0.064    29.603     8.922
   130   7 N        1.778    -0.441    32.525     8.446
   131   1 H        0.860     0.137     1.494     1.914
   132   6 C        2.924    -0.035    28.862     8.810
   133   6 C        2.924    -0.043    29.073     8.842
   134   1 H        0.926     0.046     2.373     2.409
   135   1 H        0.926     0.040     2.444     2.445
   136   1 H        0.926     0.041     2.439     2.442
   137   1 H        0.926     0.040     2.449     2.447

Wiberg/Mayer (AO) data.
largest (>0.10) Wiberg bond orders for each atom

     #   Z sym  total        # sym  WBO       # sym  WBO       # sym  WBO
 ---------------------------------------------------------------------------
     1   6 C    3.924 --    10 O    0.980    26 O    0.974     2 C    0.953
                            11 H    0.943
     2   6 C    3.961 --     7 O    0.997     3 C    0.971    12 H    0.957
                             1 C    0.953
     3   6 C    3.963 --     8 O    1.004     2 C    0.971     4 C    0.959
                            13 H    0.956
     4   6 C    3.942 --     5 C    0.964     9 O    0.963     3 C    0.959
                            14 H    0.958
     5   6 C    3.943 --     6 C    0.975     4 C    0.964    10 O    0.962
                            15 H    0.955
     6   6 C    3.973 --   120 N    1.005     5 C    0.975   125 H    0.963
                           126 H    0.952
     7   8 O    1.969 --     2 C    0.997    16 H    0.874
     8   8 O    1.951 --     3 C    1.004    17 H    0.847
     9   8 O    2.093 --    97 C    0.974     4 C    0.963
    10   8 O    2.088 --     1 C    0.980     5 C    0.962
    11   1 H    0.994 --     1 C    0.943
    12   1 H    0.998 --     2 C    0.957
    13   1 H    0.998 --     3 C    0.956
    14   1 H    0.998 --     4 C    0.958
    15   1 H    0.997 --     5 C    0.955
    16   1 H    0.893 --     7 O    0.874
    17   1 H    0.891 --     8 O    0.847
    18   6 C    3.927 --    47 O    0.986    27 O    0.969    19 C    0.955
                            29 H    0.946
    19   6 C    3.961 --    24 O    0.997    20 C    0.973    30 H    0.956
                            18 C    0.955
    20   6 C    3.964 --    25 O    1.005    19 C    0.973    21 C    0.964
                            31 H    0.950
    21   6 C    3.941 --    22 C    0.965    20 C    0.964    26 O    0.961
                            32 H    0.957
    22   6 C    3.931 --    23 C    0.970    21 C    0.965    33 H    0.958
                            27 O    0.948
    23   6 C    3.957 --    28 O    1.020    22 C    0.970    34 H    0.968
                            35 H    0.964
    24   8 O    1.968 --    19 C    0.997    36 H    0.874
    25   8 O    1.947 --    20 C    1.005    37 H    0.853
    26   8 O    2.090 --     1 C    0.974    21 C    0.961
    27   8 O    2.102 --    18 C    0.969    22 C    0.948
    28   8 O    1.973 --    23 C    1.020    38 H    0.868
    29   1 H    0.997 --    18 C    0.946
    30   1 H    0.998 --    19 C    0.956
    31   1 H    0.997 --    20 C    0.950
    32   1 H    0.997 --    21 C    0.957
    33   1 H    0.997 --    22 C    0.958
    34   1 H    0.995 --    23 C    0.968
    35   1 H    0.997 --    23 C    0.964
    36   1 H    0.892 --    24 O    0.874
    37   1 H    0.892 --    25 O    0.853
    38   1 H    0.903 --    28 O    0.868
    39   6 C    3.930 --    67 O    0.983    48 O    0.974    40 C    0.955
                            50 H    0.946
    40   6 C    3.962 --    45 O    0.997    41 C    0.974    51 H    0.956
                            39 C    0.955
    41   6 C    3.964 --    46 O    1.003    40 C    0.974    42 C    0.964
                            52 H    0.952
    42   6 C    3.937 --    43 C    0.965    41 C    0.964    47 O    0.955
                            53 H    0.955
    43   6 C    3.939 --    44 C    0.969    42 C    0.965    48 O    0.961
                            54 H    0.954
    44   6 C    3.961 --    49 O    1.023    43 C    0.969    55 H    0.967
                            56 H    0.966
    45   8 O    1.970 --    40 C    0.997    57 H    0.867
    46   8 O    1.949 --    41 C    1.003   127 H    0.854
    47   8 O    2.101 --    18 C    0.986    42 C    0.955
    48   8 O    2.082 --    39 C    0.974    43 C    0.961
    49   8 O    1.962 --    44 C    1.023    58 H    0.857
    50   1 H    0.996 --    39 C    0.946
    51   1 H    0.998 --    40 C    0.956
    52   1 H    0.997 --    41 C    0.952
    53   1 H    0.999 --    42 C    0.955
    54   1 H    0.997 --    43 C    0.954
    55   1 H    0.999 --    44 C    0.967
    56   1 H    0.994 --    44 C    0.966
    57   1 H    0.890 --    45 O    0.867
    58   1 H    0.903 --    49 O    0.857
    59   6 C    3.927 --    84 O    0.981    68 O    0.976    60 C    0.953
                            69 H    0.945
    60   6 C    3.962 --    65 O    0.998    61 C    0.972    70 H    0.957
                            59 C    0.953
    61   6 C    3.963 --    66 O    1.003    60 C    0.972    62 C    0.960
                            71 H    0.956
    62   6 C    3.941 --    63 C    0.966    67 O    0.960    61 C    0.960
                            72 H    0.957
    63   6 C    3.932 --    64 C    0.990    62 C    0.966    68 O    0.954
                            73 H    0.932
    64   6 C    3.970 --    63 C    0.990   121 N    0.990   124 H    0.960
                           123 H    0.959
    65   8 O    1.966 --    60 C    0.998    74 H    0.874
    66   8 O    1.949 --    61 C    1.003    75 H    0.849
    67   8 O    2.099 --    39 C    0.983    62 C    0.960
    68   8 O    2.092 --    59 C    0.976    63 C    0.954
    69   1 H    0.995 --    59 C    0.945
    70   1 H    0.998 --    60 C    0.957
    71   1 H    0.998 --    61 C    0.956
    72   1 H    0.998 --    62 C    0.957
    73   1 H    0.989 --    63 C    0.932
    74   1 H    0.894 --    65 O    0.874
    75   1 H    0.892 --    66 O    0.849
    76   6 C    3.928 --   105 O    0.982    85 O    0.973    77 C    0.954
                            87 H    0.946
    77   6 C    3.962 --    82 O    0.998    78 C    0.974    88 H    0.957
                            76 C    0.954
    78   6 C    3.963 --    83 O    1.004    77 C    0.974    79 C    0.964
                            89 H    0.950
    79   6 C    3.942 --    80 C    0.966    78 C    0.964    84 O    0.962
                            90 H    0.957
    80   6 C    3.925 --    81 C    0.972    79 C    0.966    91 H    0.952
                            85 O    0.942
    81   6 C    3.958 --    86 O    1.020    80 C    0.972    92 H    0.968
                            93 H    0.964
    82   8 O    1.960 --    77 C    0.998    94 H    0.875
    83   8 O    1.948 --    78 C    1.004    95 H    0.856
    84   8 O    2.103 --    59 C    0.981    79 C    0.962
    85   8 O    2.103 --    76 C    0.973    80 C    0.942
    86   8 O    1.968 --    81 C    1.020    96 H    0.872
    87   1 H    0.997 --    76 C    0.946
    88   1 H    0.998 --    77 C    0.957
    89   1 H    0.997 --    78 C    0.950
    90   1 H    0.998 --    79 C    0.957
    91   1 H    0.995 --    80 C    0.952
    92   1 H    0.996 --    81 C    0.968
    93   1 H    0.997 --    81 C    0.964
    94   1 H    0.893 --    82 O    0.875
    95   1 H    0.892 --    83 O    0.856
    96   1 H    0.901 --    86 O    0.872
    97   6 C    3.929 --   106 O    0.980     9 O    0.974    98 C    0.955
                           108 H    0.947
    98   6 C    3.961 --   103 O    0.996    99 C    0.974   109 H    0.956
                            97 C    0.955
    99   6 C    3.964 --   104 O    1.003    98 C    0.974   100 C    0.964
                           110 H    0.951
   100   6 C    3.940 --   101 C    0.964    99 C    0.964   105 O    0.960
                           111 H    0.955
   101   6 C    3.938 --   102 C    0.969   100 C    0.964   106 O    0.959
                           112 H    0.944
   102   6 C    3.962 --   107 O    1.025   101 C    0.969   113 H    0.967
                           114 H    0.965
   103   8 O    1.969 --    98 C    0.996   115 H    0.867
   104   8 O    1.950 --    99 C    1.003   116 H    0.860
   105   8 O    2.103 --    76 C    0.982   100 C    0.960
   106   8 O    2.086 --    97 C    0.980   101 C    0.959
   107   8 O    1.960 --   102 C    1.025   117 H    0.853
   108   1 H    0.996 --    97 C    0.947
   109   1 H    0.998 --    98 C    0.956
   110   1 H    0.997 --    99 C    0.951
   111   1 H    0.998 --   100 C    0.955
   112   1 H    0.997 --   101 C    0.944
   113   1 H    0.999 --   102 C    0.967
   114   1 H    0.994 --   102 C    0.965
   115   1 H    0.889 --   103 O    0.867
   116   1 H    0.892 --   104 O    0.860
   117   1 H    0.901 --   107 O    0.853
   118   6 C    3.962 --   129 C    1.384   119 C    1.263   120 N    1.112
   119   6 C    3.958 --   128 C    1.388   118 C    1.263   121 N    1.107
   120   7 N    3.510 --   118 C    1.112   122 C    1.081     6 C    1.005
                           130 N    0.133
   121   7 N    3.525 --   122 C    1.134   119 C    1.107    64 C    0.990
                           130 N    0.109
   122   6 C    3.955 --   130 N    1.632   121 N    1.134   120 N    1.081
   123   1 H    0.993 --    64 C    0.959
   124   1 H    0.994 --    64 C    0.960
   125   1 H    0.994 --     6 C    0.963
   126   1 H    0.994 --     6 C    0.952
   127   1 H    0.893 --    46 O    0.854
   128   6 C    3.987 --   132 C    1.426   119 C    1.388   135 H    0.966
   129   6 C    3.986 --   133 C    1.419   118 C    1.384   137 H    0.961
   130   7 N    2.936 --   122 C    1.632   131 H    0.935   120 N    0.133
                           121 N    0.109
   131   1 H    0.980 --   130 N    0.935
   132   6 C    3.982 --   133 C    1.440   128 C    1.426   134 H    0.971
   133   6 C    3.981 --   132 C    1.440   129 C    1.419   136 H    0.971
   134   1 H    0.997 --   132 C    0.971
   135   1 H    0.998 --   128 C    0.966
   136   1 H    0.998 --   133 C    0.971
   137   1 H    0.998 --   129 C    0.961
 ---------------------------------------------------------------------------

molecular dipole:
                 x           y           z       tot (Debye)
 q only:       -0.143      -0.796       0.512
   full:       -0.411      -1.278       0.523       3.661

           -------------------------------------------------
          | TOTAL ENERGY             -247.013516624548 Eh   |
          | GRADIENT NORM               0.000419312035 Eh/α |
          | HOMO-LUMO GAP               3.450661477270 eV   |
           -------------------------------------------------

 * finished run on 2022/03/19 at 13:19:47.794
