                         Program Version 5.0.1 -  RELEASE  -
|  1> ! Opt BP86 def2-SVP def2/J RIJCOSX D4
|  2> %output
|  3> xyzfile=True
|  4> end
|  5> %scf
|  6> maxiter 250
|  7> end
|  8> %output
|  9> Print[P_Hirshfeld] = 1
| 10> end
| 11> % maxcore
| 12> 4000
| 13> %pal nprocs 36
| 14> end
| 15> *xyz 1 1
| 16> C   28.02787246  -19.63035853 -15.44499796
| 17> C   27.62394694  -20.79853824 -16.37350460
| 18> C   28.80554305  -21.14859201 -17.28912582
| 19> C   29.16945666  -19.87213897 -18.05732936
| 20> C   29.49364848  -18.73988628 -17.06419649
| 21> C   29.77989998  -17.43638256 -17.82795587
| 22> O   27.19907007  -21.91239839 -15.63624569
| 23> O   28.39827385  -22.18747617 -18.13550387
| 24> O   30.26862891  -20.11430608 -18.92642163
| 25> O   28.37447020  -18.51960347 -16.21691830
| 26> H   27.15578857  -19.31661771 -14.85403444
| 27> H   26.79792342  -20.43540888 -17.00567958
| 28> H   29.66886890  -21.45781802 -16.67819027
| 29> H   28.29214357  -19.56675752 -18.64261123
| 30> H   30.34015915  -19.02404510 -16.43052345
| 31> H   27.09906543  -22.63345786 -16.27567908
| 32> H   29.07855474  -22.33741948 -18.81403082
| 33> C   31.29448178  -21.19347527 -12.40051761
| 34> C   30.39371569  -22.42228272 -12.50769496
| 35> C   29.26394608  -22.13114424 -13.50092444
| 36> C   28.75351151  -20.67135700 -13.41016241
| 37> C   29.26027727  -19.91222208 -12.17678752
| 38> C   28.39133046  -20.25972314 -10.95532268
| 39> O   31.19812107  -23.49128768 -12.94319356
| 40> O   28.25047999  -23.06785350 -13.25688958
| 41> O   29.10034538  -19.95382131 -14.59263821
| 42> O   30.64205173  -20.08164033 -11.87819790
| 43> O   27.10606695  -19.74485072 -11.20942269
| 44> H   32.12325560  -21.40618823 -11.70959584
| 45> H   29.96546517  -22.64450733 -11.52199381
| 46> H   29.68225803  -22.26063333 -14.50997379
| 47> H   27.66201608  -20.69939775 -13.31534469
| 48> H   29.12471781  -18.83897754 -12.36469747
| 49> H   28.35003780  -21.34574618 -10.80599127
| 50> H   28.84446997  -19.79386290 -10.07181512
| 51> H   30.62564236  -24.26024179 -13.05991120
| 52> H   27.54975410  -22.91931063 -13.90845532
| 53> H   26.55004316  -19.88747635 -10.43554424
| 54> C   35.47915572  -19.69744812 -15.24274916
| 55> C   35.32763500  -21.18698166 -14.87996485
| 56> C   33.85939394  -21.60080340 -14.71982807
| 57> C   33.16411490  -20.59008573 -13.79313884
| 58> C   33.32839781  -19.19880544 -14.41175320
| 59> C   32.52284197  -18.09595604 -13.70536624
| 60> O   35.97560495  -21.93430385 -15.87694328
| 61> O   33.84313903  -22.90379026 -14.20779770
| 62> O   31.80103301  -20.93889549 -13.69022394
| 63> O   34.70951768  -18.85361605 -14.44016505
| 64> O   31.30688714  -17.87910584 -14.37089678
| 65> H   36.51960004  -19.40610913 -15.05053791
| 66> H   35.81834236  -21.34246962 -13.90694811
| 67> H   33.36070050  -21.57035095 -15.70368650
| 68> H   33.64828411  -20.60972761 -12.80796400
| 69> H   32.94690024  -19.25611480 -15.43816408
| 70> H   32.36452041  -18.34795422 -12.65242164
| 71> H   33.08691356  -17.16172035 -13.76455765
| 72> H   35.80064725  -22.86626206 -15.68787546
| 73> H   30.70893695  -18.61975248 -14.18243345
| 74> C   36.92139395  -17.36211421 -19.73586956
| 75> C   37.76262656  -18.50451079 -19.12153661
| 76> C   36.83359687  -19.47931346 -18.38393479
| 77> C   36.07080469  -18.66349847 -17.33268239
| 78> C   35.31150863  -17.51287991 -18.02040383
| 79> C   34.60081214  -16.64557290 -16.96830200
| 80> O   38.52078348  -19.16124031 -20.10089205
| 81> O   37.62972699  -20.48069263 -17.81402465
| 82> O   35.17646433  -19.50028772 -16.61007011
| 83> O   36.23384482  -16.69153971 -18.72239246
| 84> H   37.59310741  -16.61427096 -20.18041885
| 85> H   38.43431182  -18.04524390 -18.37871231
| 86> H   36.11108794  -19.91179512 -19.09472351
| 87> H   36.80472745  -18.22165133 -16.64598197
| 88> H   34.59982206  -17.91490604 -18.74930907
| 89> H   38.90565348  -19.93639093 -19.66518314
| 90> H   37.08355974  -21.03646343 -17.23227581
| 91> C   34.28788115  -19.14339773 -23.23381712
| 92> C   35.57353473  -19.94933006 -23.40900565
| 93> C   36.57376529  -19.54121940 -22.32252619
| 94> C   36.52108402  -18.02592927 -22.00552886
| 95> C   35.71414454  -17.20696368 -23.02147126
| 96> C   36.58482482  -16.89096412 -24.25017112
| 97> O   35.22928434  -21.30954259 -23.30594268
| 98> O   37.84181213  -19.95345383 -22.75374641
| 99> O   35.99792578  -17.81620795 -20.69600416
|100> O   34.47025059  -17.77659035 -23.41606084
|101> O   37.60949051  -16.03047056 -23.81321974
|102> H   33.55631538  -19.45226047 -23.99470621
|103> H   36.00104854  -19.73824168 -24.39742059
|104> H   36.28192689  -20.06958376 -21.40289353
|105> H   37.54362982  -17.63403622 -22.05067363
|106> H   35.46686207  -16.24415474 -22.55514628
|107> H   37.00704096  -17.81094389 -24.67289047
|108> H   35.94854182  -16.40997589 -25.00282183
|109> H   36.04456208  -21.82359022 -23.36750597
|110> H   38.47455412  -19.73975139 -22.05265054
|111> H   38.13755168  -15.75802928 -24.57149426
|112> C   29.99139528  -20.04493283 -20.31120803
|113> C   30.65118064  -21.23122212 -21.03931829
|114> C   32.16054725  -21.03277796 -21.22563936
|115> C   32.39979140  -19.63627195 -21.82293302
|116> C   31.77601122  -18.60891542 -20.87373651
|117> C   32.09576531  -17.14741049 -21.22844015
|118> O   30.36295366  -22.39268791 -20.30450515
|119> O   32.62090146  -22.06208686 -22.05554969
|120> O   33.79016069  -19.43262783 -21.94786360
|121> O   30.36630304  -18.80339723 -20.82822860
|122> O   33.18704890  -16.69056341 -20.47436744
|123> H   28.90779584  -20.10799731 -20.47331998
|124> H   30.20401740  -21.29392358 -22.04335165
|125> H   32.66057342  -21.08131015 -20.24315532
|126> H   31.90617749  -19.57233237 -22.80159682
|127> H   32.19994582  -18.79002519 -19.87875137
|128> H   32.27771988  -17.04225330 -22.30220661
|129> H   31.23916538  -16.52750224 -20.95230122
|130> H   30.85143999  -23.11651654 -20.71949696
|131> H   33.50070904  -21.82868019 -22.39915679
|132> H   33.99988038  -17.08987653 -20.82354131
|133> C   31.18945197  -15.43565046 -17.30791119
|134> C   32.55802162  -15.20231451 -17.11606753
|135> N   31.03644692  -16.80141651 -17.50678459
|136> N   33.19306455  -16.43328628 -17.20677442
|137> C   32.25532252  -17.36903539 -17.44628536
|138> H   35.08854575  -15.67064732 -16.98136728
|139> H   34.72822525  -17.08996922 -15.97395172
|140> H   28.98334712  -16.73901877 -17.56661717
|141> H   29.74432996  -17.62342154 -18.90801389
|142> H   32.95621717  -23.10137150 -13.86052884
|143> C   33.04461943  -13.92598359 -16.89033595
|144> C   30.27332497  -14.39788200 -17.28304908
|145> N   32.50179342  -18.67178468 -17.60255703
|146> H   31.76924198  -19.29424951 -17.92125097
|147> C   32.12459180  -12.89331865 -16.86676734
|148> C   30.76547854  -13.12498667 -17.05703564
|149> H   32.46809860  -11.88544785 -16.69716055
|150> H   34.09410171  -13.73103615 -16.74452213
|151> H   30.08064078  -12.29265103 -17.02966796
|152> H   29.21857549  -14.56159302 -17.42931791
|153> H   33.42925447  -19.03908661 -17.42750643
|154> *
|155>
|156>                          ****END OF INPUT****
 Total Charge           Charge          ....    1
 Multiplicity           Mult            ....    1
 Number of Electrons    NEL             ....  566
Dispersion correction           -0.314960336
FINAL SINGLE POINT ENERGY     -3944.833939827007
Dispersion correction            ... Starting D4
Dispersion correction           -0.313081548
FINAL SINGLE POINT ENERGY     -3944.854824301972
Dispersion correction            ... Starting D4
Dispersion correction           -0.313287953
FINAL SINGLE POINT ENERGY     -3944.858997454301
Dispersion correction            ... Starting D4
FINAL SINGLE POINT ENERGY     -3944.859412327834
FINAL SINGLE POINT ENERGY     -3944.861612431645
FINAL SINGLE POINT ENERGY     -3944.860657106748
FINAL SINGLE POINT ENERGY     -3944.862547510609
FINAL SINGLE POINT ENERGY     -3944.862410502151
FINAL SINGLE POINT ENERGY     -3944.863006829153
FINAL SINGLE POINT ENERGY     -3944.862492813892
FINAL SINGLE POINT ENERGY     -3944.863193212194
FINAL SINGLE POINT ENERGY     -3944.862902071570
FINAL SINGLE POINT ENERGY     -3944.863285342789
FINAL SINGLE POINT ENERGY     -3944.863177299329
FINAL SINGLE POINT ENERGY     -3944.863332963886
FINAL SINGLE POINT ENERGY     -3944.863337651419
FINAL SINGLE POINT ENERGY     -3944.863352765057
Dispersion correction            ... Starting D4
Dispersion correction           -0.312857927
FINAL SINGLE POINT ENERGY     -3944.863351067805
Dispersion correction            ... Starting D4
Dispersion correction           -0.312822161
FINAL SINGLE POINT ENERGY     -3944.863363842557
Dispersion correction            ... Starting D4
                    ***********************HURRAY********************

CARTESIAN COORDINATES (ANGSTROEM)
---------------------------------
  C     27.996143  -19.627873  -15.315736
  C     27.627478  -20.732165  -16.336028
  C     28.790525  -20.999483  -17.291923
  C     29.163850  -19.676428  -17.944558
  C     29.467214  -18.593527  -16.901177
  C     29.677005  -17.236296  -17.596356
  O     27.193529  -21.948663  -15.737372
  O     28.336626  -21.961163  -18.219605
  O     30.292549  -19.842724  -18.810962
  O     28.333763  -18.457329  -16.025770
  H     27.106359  -19.364127  -14.701066
  H     26.789478  -20.305029  -16.937729
  H     29.668141  -21.365218  -16.704224
  H     28.291847  -19.332972  -18.546940
  H     30.352456  -18.862493  -16.289210
  H     27.158716  -22.574210  -16.495876
  H     29.080109  -22.200655  -18.832232
  C     31.351029  -21.390416  -12.451422
  C     30.530879  -22.640554  -12.752279
  C     29.390062  -22.275967  -13.699233
  C     28.785152  -20.874531  -13.394796
  C     29.228107  -20.266814  -12.057224
  C     28.374382  -20.808130  -10.900537
  O     31.394975  -23.620569  -13.326038
  O     28.445834  -23.322642  -13.647496
  O     29.088280  -19.962087  -14.470809
  O     30.622537  -20.439564  -11.728230
  O     27.044399  -20.384493  -11.144538
  H     32.238302  -21.641072  -11.831009
  H     30.109388  -23.018824  -11.793941
  H     29.859919  -22.183120  -14.705372
  H     27.684486  -20.987459  -13.309926
  H     29.050692  -19.171932  -12.114378
  H     28.457469  -21.920267  -10.849946
  H     28.794574  -20.396071   -9.953387
  H     30.825840  -24.358746  -13.621994
  H     27.792660  -23.084188  -14.345495
  H     26.461013  -20.798843  -10.483958
  C     35.399568  -19.484573  -15.293242
  C     35.277804  -20.988084  -14.989444
  C     33.834684  -21.453996  -14.800086
  C     33.138142  -20.492623  -13.833079
  C     33.233046  -19.077290  -14.398497
  C     32.391766  -18.025559  -13.664110
  O     35.934428  -21.722096  -16.017482
  O     33.894717  -22.785241  -14.349729
  O     31.776347  -20.864172  -13.705100
  O     34.628248  -18.694720  -14.429739
  O     31.114220  -17.886397  -14.259603
  H     36.451657  -19.167661  -15.143323
  H     35.789496  -21.147717  -14.010340
  H     33.301674  -21.373047  -15.783160
  H     33.644232  -20.523866  -12.840255
  H     32.838155  -19.097278  -15.433870
  H     32.323518  -18.261679  -12.577451
  H     32.910235  -17.049049  -13.761863
  H     35.776439  -22.668283  -15.820105
  H     30.590904  -18.708263  -14.111820
  C     36.933312  -17.309259  -19.876923
  C     37.731637  -18.422055  -19.155591
  C     36.795695  -19.330859  -18.356646
  C     35.999815  -18.448892  -17.405823
  C     35.269054  -17.324549  -18.151085
  C     34.616281  -16.366385  -17.138619
  O     38.548746  -19.198584  -20.025018
  O     37.612483  -20.265549  -17.686234
  O     35.053670  -19.230238  -16.666165
  O     36.226171  -16.565172  -18.910153
  H     37.632377  -16.591189  -20.361197
  H     38.384358  -17.886198  -18.425223
  H     36.081175  -19.825606  -19.059468
  H     36.715582  -17.975729  -16.695285
  H     34.509996  -17.732123  -18.850055
  H     38.852366  -19.938044  -19.451767
  H     37.036648  -20.902516  -17.188126
  C     34.315443  -19.375479  -23.253593
  C     35.542744  -20.281082  -23.238992
  C     36.521334  -19.783872  -22.177419
  C     36.564565  -18.230706  -22.084645
  C     35.875497  -17.506811  -23.247862
  C     36.815976  -17.403762  -24.458081
  O     35.115735  -21.616798  -22.974403
  O     37.775577  -20.368541  -22.451566
  O     35.999261  -17.796042  -20.830530
  O     34.620543  -18.076442  -23.675735
  O     37.909379  -16.598114  -24.053377
  H     33.549753  -19.761548  -23.960474
  H     36.025348  -20.227822  -24.240762
  H     36.102502  -20.125882  -21.203222
  H     37.627235  -17.915700  -22.137122
  H     35.653465  -16.471160  -22.913391
  H     37.142824  -18.422358  -24.776973
  H     36.234171  -16.957040  -25.297891
  H     35.924631  -22.153306  -22.855409
  H     38.334753  -20.095413  -21.688065
  H     38.575387  -16.600349  -24.763894
  C     29.995123  -19.850285  -20.218452
  C     30.638721  -21.077779  -20.886274
  C     32.140957  -20.924299  -21.119240
  C     32.393003  -19.564960  -21.777718
  C     31.819337  -18.473421  -20.876522
  C     32.186477  -17.037846  -21.274441
  O     30.346261  -22.234852  -20.110114
  O     32.544839  -22.027070  -21.893275
  O     33.788691  -19.372897  -21.930423
  O     30.383250  -18.643982  -20.816568
  O     33.351655  -16.601250  -20.597770
  H     28.893695  -19.911060  -20.332354
  H     30.171958  -21.159147  -21.896909
  H     32.657079  -20.905436  -20.124177
  H     31.883958  -19.526541  -22.768762
  H     32.242573  -18.611811  -19.861404
  H     32.285504  -16.946351  -22.380296
  H     31.353005  -16.376021  -20.959198
  H     30.830229  -22.974551  -20.531966
  H     33.498925  -21.917856  -22.144934
  H     34.132404  -17.102026  -20.930611
  C     31.133891  -15.221223  -17.203719
  C     32.517449  -14.975092  -17.087402
  N     30.979667  -16.600960  -17.397233
  N     33.165554  -16.208381  -17.241208
  C     32.218787  -17.177104  -17.423179
  H     35.054307  -15.369269  -17.325568
  H     34.862599  -16.666553  -16.097948
  H     28.924798  -16.549271  -17.167949
  H     29.490119  -17.319992  -18.688007
  H     32.978791  -23.096657  -14.127261
  C     33.016499  -13.687314  -16.863316
  C     30.195591  -14.186886  -17.118478
  N     32.465068  -18.482379  -17.599453
  H     31.728564  -19.099753  -17.985622
  C     32.077108  -12.647060  -16.773149
  C     30.693383  -12.892150  -16.897854
  H     32.430781  -11.620065  -16.601756
  H     34.092251  -13.488762  -16.762128
  H     29.986719  -12.053163  -16.820931
  H     29.116780  -14.369163  -17.217447
  H     33.393024  -18.871879  -17.357131

 Multiplicity           Mult            ....    1
 Number of Electrons    NEL             ....  566
 Basis Dimension        Dim             .... 1356

ORBITAL ENERGIES
----------------

  NO   OCC          E(Eh)            E(eV)
   0   2.0000     -18.912110      -514.6247
   1   2.0000     -18.911684      -514.6131
   2   2.0000     -18.895858      -514.1824
   3   2.0000     -18.895810      -514.1811
   4   2.0000     -18.894803      -514.1537
   5   2.0000     -18.894733      -514.1518
   6   2.0000     -18.888712      -513.9880
   7   2.0000     -18.888505      -513.9823
   8   2.0000     -18.886623      -513.9311
   9   2.0000     -18.886615      -513.9309
  10   2.0000     -18.883665      -513.8506
  11   2.0000     -18.883541      -513.8473
  12   2.0000     -18.882453      -513.8177
  13   2.0000     -18.882438      -513.8173
  14   2.0000     -18.881720      -513.7977
  15   2.0000     -18.881242      -513.7847
  16   2.0000     -18.877746      -513.6896
  17   2.0000     -18.877737      -513.6893
  18   2.0000     -18.863484      -513.3015
  19   2.0000     -18.863462      -513.3009
  20   2.0000     -18.855993      -513.0976
  21   2.0000     -18.855962      -513.0968
  22   2.0000     -18.853406      -513.0273
  23   2.0000     -18.853334      -513.0253
  24   2.0000     -18.849204      -512.9129
  25   2.0000     -18.848731      -512.9001
  26   2.0000     -18.848431      -512.8919
  27   2.0000     -18.848272      -512.8876
  28   2.0000     -14.191159      -386.1611
  29   2.0000     -14.191024      -386.1574
  30   2.0000     -14.150005      -385.0412
  31   2.0000     -10.152003      -276.2500
  32   2.0000     -10.116641      -275.2878
  33   2.0000     -10.116508      -275.2842
  34   2.0000     -10.109580      -275.0957
  35   2.0000     -10.109571      -275.0954
  36   2.0000     -10.098968      -274.8069
  37   2.0000     -10.098826      -274.8030
  38   2.0000     -10.074102      -274.1303
  39   2.0000     -10.074022      -274.1281
  40   2.0000     -10.069509      -274.0053
  41   2.0000     -10.069358      -274.0012
  42   2.0000     -10.067925      -273.9622
  43   2.0000     -10.067735      -273.9570
  44   2.0000     -10.061460      -273.7862
  45   2.0000     -10.061390      -273.7844
  46   2.0000     -10.059652      -273.7370
  47   2.0000     -10.059438      -273.7312
  48   2.0000     -10.058279      -273.6997
  49   2.0000     -10.058123      -273.6954
  50   2.0000     -10.054075      -273.5853
  51   2.0000     -10.054019      -273.5838
  52   2.0000     -10.053312      -273.5645
  53   2.0000     -10.053185      -273.5611
  54   2.0000     -10.050653      -273.4922
  55   2.0000     -10.050624      -273.4914
  56   2.0000     -10.049620      -273.4641
  57   2.0000     -10.049388      -273.4578
  58   2.0000     -10.049300      -273.4553
  59   2.0000     -10.049279      -273.4548
  60   2.0000     -10.048504      -273.4337
  61   2.0000     -10.048500      -273.4336
  62   2.0000     -10.048073      -273.4220
  63   2.0000     -10.048028      -273.4207
  64   2.0000     -10.041002      -273.2296
  65   2.0000     -10.040780      -273.2235
  66   2.0000     -10.036750      -273.1139
  67   2.0000     -10.036599      -273.1097
  68   2.0000     -10.035921      -273.0913
  69   2.0000     -10.035893      -273.0905
  70   2.0000     -10.021232      -272.6916
  71   2.0000     -10.021139      -272.6890
  72   2.0000     -10.011215      -272.4190
  73   2.0000     -10.011065      -272.4149
  74   2.0000      -1.090001       -29.6604
  75   2.0000      -1.089174       -29.6379
  76   2.0000      -1.079942       -29.3867
  77   2.0000      -1.079440       -29.3730
  78   2.0000      -1.076085       -29.2818
  79   2.0000      -1.070229       -29.1224
  80   2.0000      -1.069474       -29.1019
  81   2.0000      -1.037657       -28.2361
  82   2.0000      -1.037480       -28.2313
  83   2.0000      -1.033916       -28.1343
  84   2.0000      -1.033529       -28.1238
  85   2.0000      -1.032686       -28.1008
  86   2.0000      -1.031177       -28.0598
  87   2.0000      -1.025214       -27.8975
  88   2.0000      -1.024829       -27.8870
  89   2.0000      -1.021518       -27.7969
  90   2.0000      -1.018855       -27.7244
  91   2.0000      -1.013108       -27.5681
  92   2.0000      -1.011413       -27.5220
  93   2.0000      -1.001760       -27.2593
  94   2.0000      -1.001485       -27.2518
  95   2.0000      -1.000654       -27.2292
  96   2.0000      -1.000507       -27.2252
  97   2.0000      -0.995345       -27.0847
  98   2.0000      -0.994642       -27.0656
  99   2.0000      -0.994269       -27.0554
 100   2.0000      -0.993716       -27.0404
 101   2.0000      -0.991012       -26.9668
 102   2.0000      -0.990872       -26.9630
 103   2.0000      -0.968735       -26.3606
 104   2.0000      -0.953808       -25.9544
 105   2.0000      -0.866482       -23.5782
 106   2.0000      -0.841173       -22.8895
 107   2.0000      -0.826821       -22.4989
 108   2.0000      -0.813802       -22.1447
 109   2.0000      -0.813458       -22.1353
 110   2.0000      -0.810625       -22.0582
 111   2.0000      -0.806124       -21.9358
 112   2.0000      -0.797657       -21.7053
 113   2.0000      -0.787533       -21.4298
 114   2.0000      -0.785260       -21.3680
 115   2.0000      -0.784952       -21.3596
 116   2.0000      -0.773528       -21.0488
 117   2.0000      -0.772929       -21.0325
 118   2.0000      -0.772531       -21.0216
 119   2.0000      -0.767555       -20.8862
 120   2.0000      -0.762522       -20.7493
 121   2.0000      -0.727851       -19.8058
 122   2.0000      -0.710876       -19.3439
 123   2.0000      -0.710132       -19.3237
 124   2.0000      -0.705113       -19.1871
 125   2.0000      -0.700603       -19.0644
 126   2.0000      -0.691202       -18.8086
 127   2.0000      -0.687498       -18.7078
 128   2.0000      -0.683402       -18.5963
 129   2.0000      -0.678153       -18.4535
 130   2.0000      -0.676093       -18.3974
 131   2.0000      -0.673793       -18.3349
 132   2.0000      -0.669913       -18.2293
 133   2.0000      -0.662439       -18.0259
 134   2.0000      -0.661749       -18.0071
 135   2.0000      -0.659036       -17.9333
 136   2.0000      -0.645104       -17.5542
 137   2.0000      -0.644874       -17.5479
 138   2.0000      -0.641979       -17.4691
 139   2.0000      -0.641444       -17.4546
 140   2.0000      -0.624474       -16.9928
 141   2.0000      -0.622205       -16.9311
 142   2.0000      -0.617804       -16.8113
 143   2.0000      -0.616381       -16.7726
 144   2.0000      -0.615544       -16.7498
 145   2.0000      -0.603347       -16.4179
 146   2.0000      -0.603199       -16.4139
 147   2.0000      -0.595107       -16.1937
 148   2.0000      -0.595031       -16.1916
 149   2.0000      -0.590669       -16.0729
 150   2.0000      -0.589075       -16.0295
 151   2.0000      -0.587756       -15.9937
 152   2.0000      -0.586124       -15.9492
 153   2.0000      -0.583253       -15.8711
 154   2.0000      -0.582229       -15.8433
 155   2.0000      -0.575580       -15.6623
 156   2.0000      -0.572772       -15.5859
 157   2.0000      -0.572602       -15.5813
 158   2.0000      -0.568849       -15.4792
 159   2.0000      -0.565885       -15.3985
 160   2.0000      -0.565446       -15.3866
 161   2.0000      -0.564132       -15.3508
 162   2.0000      -0.562740       -15.3129
 163   2.0000      -0.559344       -15.2205
 164   2.0000      -0.557237       -15.1632
 165   2.0000      -0.552981       -15.0474
 166   2.0000      -0.550361       -14.9761
 167   2.0000      -0.550064       -14.9680
 168   2.0000      -0.547165       -14.8891
 169   2.0000      -0.546504       -14.8711
 170   2.0000      -0.539834       -14.6896
 171   2.0000      -0.539369       -14.6770
 172   2.0000      -0.537618       -14.6293
 173   2.0000      -0.536513       -14.5993
 174   2.0000      -0.536283       -14.5930
 175   2.0000      -0.535035       -14.5590
 176   2.0000      -0.532070       -14.4784
 177   2.0000      -0.527350       -14.3499
 178   2.0000      -0.524919       -14.2838
 179   2.0000      -0.522422       -14.2158
 180   2.0000      -0.520992       -14.1769
 181   2.0000      -0.510948       -13.9036
 182   2.0000      -0.508112       -13.8264
 183   2.0000      -0.506754       -13.7895
 184   2.0000      -0.503480       -13.7004
 185   2.0000      -0.501415       -13.6442
 186   2.0000      -0.501300       -13.6411
 187   2.0000      -0.498168       -13.5558
 188   2.0000      -0.496770       -13.5178
 189   2.0000      -0.495924       -13.4948
 190   2.0000      -0.493714       -13.4346
 191   2.0000      -0.491248       -13.3675
 192   2.0000      -0.490185       -13.3386
 193   2.0000      -0.486950       -13.2506
 194   2.0000      -0.485532       -13.2120
 195   2.0000      -0.484927       -13.1955
 196   2.0000      -0.482769       -13.1368
 197   2.0000      -0.476014       -12.9530
 198   2.0000      -0.473069       -12.8728
 199   2.0000      -0.469261       -12.7692
 200   2.0000      -0.468951       -12.7608
 201   2.0000      -0.465519       -12.6674
 202   2.0000      -0.465072       -12.6552
 203   2.0000      -0.463007       -12.5991
 204   2.0000      -0.461819       -12.5667
 205   2.0000      -0.461779       -12.5657
 206   2.0000      -0.456828       -12.4309
 207   2.0000      -0.455654       -12.3990
 208   2.0000      -0.454471       -12.3668
 209   2.0000      -0.453741       -12.3469
 210   2.0000      -0.450337       -12.2543
 211   2.0000      -0.449446       -12.2300
 212   2.0000      -0.447485       -12.1767
 213   2.0000      -0.445453       -12.1214
 214   2.0000      -0.437858       -11.9147
 215   2.0000      -0.437750       -11.9118
 216   2.0000      -0.436054       -11.8656
 217   2.0000      -0.434908       -11.8344
 218   2.0000      -0.432184       -11.7603
 219   2.0000      -0.430899       -11.7254
 220   2.0000      -0.429757       -11.6943
 221   2.0000      -0.425729       -11.5847
 222   2.0000      -0.425039       -11.5659
 223   2.0000      -0.422871       -11.5069
 224   2.0000      -0.420585       -11.4447
 225   2.0000      -0.418433       -11.3861
 226   2.0000      -0.411075       -11.1859
 227   2.0000      -0.410992       -11.1837
 228   2.0000      -0.409966       -11.1558
 229   2.0000      -0.408169       -11.1069
 230   2.0000      -0.404224       -10.9995
 231   2.0000      -0.402739       -10.9591
 232   2.0000      -0.402385       -10.9495
 233   2.0000      -0.397668       -10.8211
 234   2.0000      -0.397125       -10.8063
 235   2.0000      -0.392714       -10.6863
 236   2.0000      -0.390137       -10.6162
 237   2.0000      -0.387947       -10.5566
 238   2.0000      -0.385425       -10.4880
 239   2.0000      -0.382307       -10.4031
 240   2.0000      -0.381193       -10.3728
 241   2.0000      -0.379634       -10.3304
 242   2.0000      -0.379538       -10.3278
 243   2.0000      -0.376798       -10.2532
 244   2.0000      -0.374101       -10.1798
 245   2.0000      -0.371912       -10.1202
 246   2.0000      -0.371436       -10.1073
 247   2.0000      -0.368727       -10.0336
 248   2.0000      -0.368112       -10.0168
 249   2.0000      -0.364112        -9.9080
 250   2.0000      -0.362409        -9.8617
 251   2.0000      -0.359857        -9.7922
 252   2.0000      -0.358534        -9.7562
 253   2.0000      -0.350447        -9.5361
 254   2.0000      -0.348035        -9.4705
 255   2.0000      -0.345813        -9.4101
 256   2.0000      -0.345095        -9.3905
 257   2.0000      -0.336276        -9.1505
 258   2.0000      -0.334755        -9.1091
 259   2.0000      -0.332650        -9.0519
 260   2.0000      -0.332399        -9.0450
 261   2.0000      -0.329968        -8.9789
 262   2.0000      -0.329582        -8.9684
 263   2.0000      -0.329247        -8.9593
 264   2.0000      -0.327162        -8.9025
 265   2.0000      -0.324072        -8.8185
 266   2.0000      -0.323279        -8.7969
 267   2.0000      -0.317123        -8.6294
 268   2.0000      -0.316657        -8.6167
 269   2.0000      -0.315864        -8.5951
 270   2.0000      -0.315290        -8.5795
 271   2.0000      -0.312867        -8.5135
 272   2.0000      -0.311015        -8.4631
 273   2.0000      -0.310974        -8.4620
 274   2.0000      -0.306308        -8.3351
 275   2.0000      -0.305981        -8.3262
 276   2.0000      -0.301143        -8.1945
 277   2.0000      -0.300996        -8.1905
 278   2.0000      -0.297214        -8.0876
 279   2.0000      -0.296570        -8.0701
 280   2.0000      -0.296223        -8.0606
 281   2.0000      -0.291518        -7.9326
 282   2.0000      -0.291229        -7.9247
 283   0.0000      -0.151957        -4.1349
 284   0.0000      -0.122456        -3.3322
 285   0.0000      -0.113600        -3.0912
 286   0.0000      -0.081933        -2.2295
 287   0.0000      -0.077066        -2.0971

MULLIKEN ATOMIC CHARGES
-----------------------
   0 C :    0.251211
   1 C :    0.116939
   2 C :    0.131102
   3 C :    0.060527
   4 C :    0.073756
   5 C :    0.186301
   6 O :   -0.282798
   7 O :   -0.293485
   8 O :   -0.371433
   9 O :   -0.313262
  10 H :    0.053194
  11 H :    0.026543
  12 H :    0.016461
  13 H :    0.022084
  14 H :    0.025060
  15 H :    0.199731
  16 H :    0.183641
  17 C :    0.233572
  18 C :    0.148976
  19 C :    0.081739
  20 C :    0.128351
  21 C :    0.066052
  22 C :    0.158967
  23 O :   -0.274757
  24 O :   -0.271742
  25 O :   -0.356193
  26 O :   -0.304373
  27 O :   -0.284940
  28 H :    0.040896
  29 H :    0.027826
  30 H :   -0.004127
  31 H :    0.031596
  32 H :    0.038392
  33 H :    0.023182
  34 H :    0.038296
  35 H :    0.198279
  36 H :    0.169832
  37 H :    0.187293
  38 C :    0.244599
  39 C :    0.140258
  40 C :    0.109237
  41 C :    0.105516
  42 C :    0.043048
  43 C :    0.228561
  44 O :   -0.284326
  45 O :   -0.285691
  46 O :   -0.335404
  47 O :   -0.309783
  48 O :   -0.324200
  49 H :    0.044251
  50 H :    0.033447
  51 H :   -0.007539
  52 H :    0.017405
  53 H :   -0.019226
  54 H :    0.031864
  55 H :    0.025724
  56 H :    0.203304
  57 H :    0.205547
  58 C :    0.250988
  59 C :    0.115870
  60 C :    0.132233
  61 C :    0.058295
  62 C :    0.075186
  63 C :    0.185250
  64 O :   -0.282417
  65 O :   -0.292806
  66 O :   -0.370705
  67 O :   -0.313106
  68 H :    0.053102
  69 H :    0.026547
  70 H :    0.016096
  71 H :    0.022053
  72 H :    0.025223
  73 H :    0.199807
  74 H :    0.183509
  75 C :    0.233593
  76 C :    0.149192
  77 C :    0.081569
  78 C :    0.128078
  79 C :    0.067139
  80 C :    0.158173
  81 O :   -0.275152
  82 O :   -0.271585
  83 O :   -0.355723
  84 O :   -0.304363
  85 O :   -0.285051
  86 H :    0.040967
  87 H :    0.027838
  88 H :   -0.003791
  89 H :    0.031480
  90 H :    0.038153
  91 H :    0.023419
  92 H :    0.038337
  93 H :    0.198608
  94 H :    0.169751
  95 H :    0.187172
  96 C :    0.245115
  97 C :    0.140105
  98 C :    0.108352
  99 C :    0.106356
 100 C :    0.043339
 101 C :    0.228057
 102 O :   -0.284429
 103 O :   -0.285915
 104 O :   -0.334743
 105 O :   -0.309387
 106 O :   -0.323873
 107 H :    0.044271
 108 H :    0.033544
 109 H :   -0.007973
 110 H :    0.017419
 111 H :   -0.019678
 112 H :    0.032064
 113 H :    0.025739
 114 H :    0.203362
 115 H :    0.178234
 116 H :    0.204756
 117 C :    0.160005
 118 C :    0.160242
 119 N :   -0.191835
 120 N :   -0.191375
 121 C :    0.170854
 122 H :    0.072866
 123 H :    0.068151
 124 H :    0.073366
 125 H :    0.067559
 126 H :    0.178135
 127 C :   -0.085731
 128 C :   -0.085803
 129 N :   -0.079086
 130 H :    0.176083
 131 C :    0.004743
 132 C :    0.004811
 133 H :    0.031636
 134 H :    0.010930
 135 H :    0.031648
 136 H :    0.010885
 137 H :    0.174994
Sum of atomic charges:    1.0000000

LOEWDIN ATOMIC CHARGES
----------------------
   0 C :    0.124366
   1 C :    0.019434
   2 C :    0.019020
   3 C :    0.031592
   4 C :    0.044235
   5 C :    0.042435
   6 O :   -0.100937
   7 O :   -0.125080
   8 O :   -0.136026
   9 O :   -0.117727
  10 H :    0.030285
  11 H :    0.028188
  12 H :    0.014945
  13 H :    0.023685
  14 H :    0.012237
  15 H :    0.091151
  16 H :    0.057160
  17 C :    0.107102
  18 C :    0.026424
  19 C :    0.016365
  20 C :    0.040415
  21 C :    0.040855
  22 C :    0.049896
  23 O :   -0.090040
  24 O :   -0.124891
  25 O :   -0.136846
  26 O :   -0.123930
  27 O :   -0.127470
  28 H :    0.024105
  29 H :    0.025864
  30 H :    0.009828
  31 H :    0.031013
  32 H :    0.034966
  33 H :    0.011530
  34 H :    0.021841
  35 H :    0.097549
  36 H :    0.058300
  37 H :    0.094783
  38 C :    0.114498
  39 C :    0.028136
  40 C :    0.016648
  41 C :    0.029805
  42 C :    0.022855
  43 C :    0.059341
  44 O :   -0.092945
  45 O :   -0.128256
  46 O :   -0.134961
  47 O :   -0.122952
  48 O :   -0.128928
  49 H :    0.027587
  50 H :    0.031742
  51 H :    0.008531
  52 H :    0.021272
  53 H :    0.001097
  54 H :    0.019252
  55 H :    0.027317
  56 H :    0.099026
  57 H :    0.053295
  58 C :    0.124287
  59 C :    0.019544
  60 C :    0.018768
  61 C :    0.031468
  62 C :    0.044150
  63 C :    0.042346
  64 O :   -0.101235
  65 O :   -0.125015
  66 O :   -0.137159
  67 O :   -0.117706
  68 H :    0.030202
  69 H :    0.028081
  70 H :    0.014779
  71 H :    0.023583
  72 H :    0.012139
  73 H :    0.091322
  74 H :    0.057598
  75 C :    0.107131
  76 C :    0.026402
  77 C :    0.016715
  78 C :    0.039973
  79 C :    0.040831
  80 C :    0.049853
  81 O :   -0.089410
  82 O :   -0.124656
  83 O :   -0.136795
  84 O :   -0.124178
  85 O :   -0.127549
  86 H :    0.024103
  87 H :    0.025974
  88 H :    0.010089
  89 H :    0.030923
  90 H :    0.034957
  91 H :    0.011536
  92 H :    0.021769
  93 H :    0.097830
  94 H :    0.058819
  95 H :    0.094723
  96 C :    0.114525
  97 C :    0.028042
  98 C :    0.016548
  99 C :    0.029824
 100 C :    0.022983
 101 C :    0.059308
 102 O :   -0.092566
 103 O :   -0.128300
 104 O :   -0.134631
 105 O :   -0.123010
 106 O :   -0.129067
 107 H :    0.027667
 108 H :    0.031807
 109 H :    0.008346
 110 H :    0.021263
 111 H :    0.001152
 112 H :    0.019389
 113 H :    0.027370
 114 H :    0.099001
 115 H :    0.056334
 116 H :    0.053830
 117 C :    0.015005
 118 C :    0.015139
 119 N :    0.054812
 120 N :    0.054937
 121 C :    0.116321
 122 H :    0.056750
 123 H :    0.037148
 124 H :    0.056964
 125 H :    0.037232
 126 H :    0.056927
 127 C :   -0.038992
 128 C :   -0.039107
 129 N :    0.036273
 130 H :    0.067065
 131 C :   -0.014797
 132 C :   -0.014816
 133 H :    0.046419
 134 H :    0.043638
 135 H :    0.046417
 136 H :    0.043636
 137 H :    0.068042

  Mayer bond orders larger than 0.100000
B(  0-C ,  1-C ) :   0.9999 B(  0-C ,  9-O ) :   1.0514 B(  0-C , 10-H ) :   0.9117
B(  0-C , 25-O ) :   0.9710 B(  1-C ,  2-C ) :   0.9762 B(  1-C ,  6-O ) :   1.0386
B(  1-C , 11-H ) :   0.8840 B(  2-C ,  3-C ) :   1.0095 B(  2-C ,  7-O ) :   1.1295
B(  2-C , 12-H ) :   0.8794 B(  3-C ,  4-C ) :   1.0004 B(  3-C ,  8-O ) :   0.9156
B(  3-C , 13-H ) :   0.8661 B(  4-C ,  5-C ) :   0.9966 B(  4-C ,  9-O ) :   1.0002
B(  4-C , 14-H ) :   0.8959 B(  5-C ,119-N ) :   0.9299 B(  5-C ,124-H ) :   0.9039
B(  5-C ,125-H ) :   0.9193 B(  6-O , 15-H ) :   0.9227 B(  6-O , 36-H ) :   0.1044
B(  7-O , 16-H ) :   0.8923 B(  8-O , 96-C ) :   0.9275 B(  8-O ,130-H ) :   0.1402
B( 16-H ,102-O ) :   0.1391 B( 17-C , 18-C ) :   1.0108 B( 17-C , 26-O ) :   1.0933
B( 17-C , 28-H ) :   0.8970 B( 17-C , 46-O ) :   0.9690 B( 18-C , 19-C ) :   1.0285
B( 18-C , 23-O ) :   1.0526 B( 18-C , 29-H ) :   0.8773 B( 19-C , 20-C ) :   0.9615
B( 19-C , 24-O ) :   1.1200 B( 19-C , 30-H ) :   0.8506 B( 20-C , 21-C ) :   1.0557
B( 20-C , 25-O ) :   0.9329 B( 20-C , 31-H ) :   0.8672 B( 21-C , 22-C ) :   1.0301
B( 21-C , 26-O ) :   0.9545 B( 21-C , 32-H ) :   0.8872 B( 22-C , 27-O ) :   1.0779
B( 22-C , 33-H ) :   0.9231 B( 22-C , 34-H ) :   0.9193 B( 23-O , 35-H ) :   0.9432
B( 23-O ,126-H ) :   0.1390 B( 24-O , 36-H ) :   0.9290 B( 27-O , 37-H ) :   0.9617
B( 38-C , 39-C ) :   0.9988 B( 38-C , 47-O ) :   1.0849 B( 38-C , 49-H ) :   0.8967
B( 38-C , 66-O ) :   0.9293 B( 39-C , 40-C ) :   1.0022 B( 39-C , 44-O ) :   1.0402
B( 39-C , 50-H ) :   0.8852 B( 40-C , 41-C ) :   0.9779 B( 40-C , 45-O ) :   1.1537
B( 40-C , 51-H ) :   0.8835 B( 41-C , 42-C ) :   1.0044 B( 41-C , 46-O ) :   0.9933
B( 41-C , 52-H ) :   0.8764 B( 42-C , 43-C ) :   0.9943 B( 42-C , 47-O ) :   0.9331
B( 42-C , 53-H ) :   0.8707 B( 43-C , 48-O ) :   1.0766 B( 43-C , 54-H ) :   0.9267
B( 43-C , 55-H ) :   0.9249 B( 44-O , 56-H ) :   0.9340 B( 44-O , 74-H ) :   0.1385
B( 45-O ,126-H ) :   0.8927 B( 48-O , 57-H ) :   0.8918 B( 58-C , 59-C ) :   1.0000
B( 58-C , 67-O ) :   1.0519 B( 58-C , 68-H ) :   0.9116 B( 58-C , 83-O ) :   0.9703
B( 59-C , 60-C ) :   0.9759 B( 59-C , 64-O ) :   1.0392 B( 59-C , 69-H ) :   0.8841
B( 60-C , 61-C ) :   1.0095 B( 60-C , 65-O ) :   1.1308 B( 60-C , 70-H ) :   0.8788
B( 61-C , 62-C ) :   0.9995 B( 61-C , 66-O ) :   0.9169 B( 61-C , 71-H ) :   0.8664
B( 62-C , 63-C ) :   0.9964 B( 62-C , 67-O ) :   1.0001 B( 62-C , 72-H ) :   0.8967
B( 63-C ,120-N ) :   0.9303 B( 63-C ,122-H ) :   0.9036 B( 63-C ,123-H ) :   0.9191
B( 64-O , 73-H ) :   0.9231 B( 64-O , 94-H ) :   0.1030 B( 65-O , 74-H ) :   0.8927
B( 66-O ,137-H ) :   0.1373 B( 75-C , 76-C ) :   1.0118 B( 75-C , 84-O ) :   1.0930
B( 75-C , 86-H ) :   0.8970 B( 75-C ,104-O ) :   0.9698 B( 76-C , 77-C ) :   1.0281
B( 76-C , 81-O ) :   1.0511 B( 76-C , 87-H ) :   0.8774 B( 77-C , 78-C ) :   0.9615
B( 77-C , 82-O ) :   1.1191 B( 77-C , 88-H ) :   0.8510 B( 78-C , 79-C ) :   1.0563
B( 78-C , 83-O ) :   0.9330 B( 78-C , 89-H ) :   0.8671 B( 79-C , 80-C ) :   1.0295
B( 79-C , 84-O ) :   0.9554 B( 79-C , 90-H ) :   0.8871 B( 80-C , 85-O ) :   1.0776
B( 80-C , 91-H ) :   0.9230 B( 80-C , 92-H ) :   0.9192 B( 81-O , 93-H ) :   0.9432
B( 81-O ,115-H ) :   0.1401 B( 82-O , 94-H ) :   0.9298 B( 85-O , 95-H ) :   0.9618
B( 96-C , 97-C ) :   0.9988 B( 96-C ,105-O ) :   1.0863 B( 96-C ,107-H ) :   0.8966
B( 97-C , 98-C ) :   1.0027 B( 97-C ,102-O ) :   1.0398 B( 97-C ,108-H ) :   0.8850
B( 98-C , 99-C ) :   0.9777 B( 98-C ,103-O ) :   1.1537 B( 98-C ,109-H ) :   0.8833
B( 99-C ,100-C ) :   1.0036 B( 99-C ,104-O ) :   0.9937 B( 99-C ,110-H ) :   0.8767
B(100-C ,101-C ) :   0.9938 B(100-C ,105-O ) :   0.9337 B(100-C ,111-H ) :   0.8703
B(101-C ,106-O ) :   1.0767 B(101-C ,112-H ) :   0.9272 B(101-C ,113-H ) :   0.9247
B(102-O ,114-H ) :   0.9337 B(103-O ,115-H ) :   0.8921 B(106-O ,116-H ) :   0.8931
B(117-C ,118-C ) :   1.3230 B(117-C ,119-N ) :   1.0800 B(117-C ,128-C ) :   1.3325
B(118-C ,120-N ) :   1.0801 B(118-C ,127-C ) :   1.3325 B(119-N ,121-C ) :   1.2339
B(120-N ,121-C ) :   1.2341 B(121-C ,129-N ) :   1.3761 B(127-C ,128-C ) :   0.1083
B(127-C ,131-C ) :   1.3665 B(127-C ,134-H ) :   0.9914 B(128-C ,132-C ) :   1.3662
B(128-C ,136-H ) :   0.9916 B(129-N ,130-H ) :   0.8358 B(129-N ,137-H ) :   0.8378
B(131-C ,132-C ) :   1.3713 B(131-C ,133-H ) :   0.9715 B(132-C ,135-H ) :   0.9715

Dispersion correction           -0.312835200
FINAL SINGLE POINT ENERGY     -3944.863364827301

DIPOLE MOMENT
-------------
                                X             Y             Z
Electronic contribution:     -0.85040       4.36582       0.55278
Nuclear contribution   :      0.85170      -4.29643      -0.55371
                        -----------------------------------------
Total Dipole Moment    :      0.00131       0.06939      -0.00093
                        -----------------------------------------
Magnitude (a.u.)       :      0.06941
Magnitude (Debye)      :      0.17642

Rotational constants in cm-1:     0.001551     0.000711     0.000706
Rotational constants in MHz :    46.490829    21.308745    21.157861

                             ****ORCA TERMINATED NORMALLY****
TOTAL RUN TIME: 0 days 0 hours 29 minutes 23 seconds 560 msec
