                         Program Version 5.0.1 -  RELEASE  -
|  1> ! Opt BP86 def2-SVP def2/J RIJCOSX D4
|  2> %geom MaxIter 100 end
|  3> %output
|  4> xyzfile=True
|  5> end
|  6> %scf
|  7> maxiter 250
|  8> end
|  9> %output
| 10> Print[P_Hirshfeld] = 1
| 11> end
| 12> % maxcore
| 13> 4000
| 14> %pal nprocs 8
| 15> end
| 16> *xyz -1 1
| 17> C    1.02265695   0.93639607  -0.00707641
| 18> C   -0.28475184   1.35757584  -0.00845156
| 19> C   -1.30189577   0.41992427  -0.00135463
| 20> C   -1.02415322  -0.93535552   0.00710696
| 21> C    0.28287742  -1.35758917   0.00848922
| 22> C    1.39215048  -0.44897592   0.00148911
| 23> O    2.58982209  -0.83505881   0.00273523
| 24> F   -2.62609355   0.84686212  -0.00274957
| 25> H    1.82178303   1.66868475  -0.01262589
| 26> H   -0.53321297   2.41333065  -0.01500991
| 27> H   -1.84269633  -1.64706590   0.01254054
| 28> H    0.50341370  -2.41872838   0.01510692
| 29> *
| 30>
| 31>                          ****END OF INPUT****
 Total Charge           Charge          ....   -1
 Multiplicity           Mult            ....    1
 Number of Electrons    NEL             ....   58
Dispersion correction           -0.017210756
FINAL SINGLE POINT ENERGY      -405.857154599539
Dispersion correction            ... Starting D4
Dispersion correction           -0.017040164
FINAL SINGLE POINT ENERGY      -405.861940876416
Dispersion correction            ... Starting D4
Dispersion correction           -0.017006122
FINAL SINGLE POINT ENERGY      -405.862163245894
Dispersion correction            ... Starting D4
Dispersion correction           -0.017001421
FINAL SINGLE POINT ENERGY      -405.862188046635
Dispersion correction            ... Starting D4
Dispersion correction           -0.017002576
FINAL SINGLE POINT ENERGY      -405.862193195801
Dispersion correction            ... Starting D4
                    ***********************HURRAY********************

CARTESIAN COORDINATES (ANGSTROEM)
---------------------------------
  C      1.036352    0.947181   -0.007171
  C     -0.298131    1.374568   -0.008546
  C     -1.337890    0.431429   -0.001379
  C     -1.045023   -0.941465    0.007166
  C      0.287741   -1.374194    0.008577
  C      1.433625   -0.462339    0.001468
  O      2.639002   -0.851032    0.002826
  F     -2.654345    0.856116   -0.002780
  H      1.856063    1.687226   -0.012767
  H     -0.556037    2.448779   -0.015211
  H     -1.881983   -1.662549    0.012686
  H      0.520524   -2.453722    0.015331

 Multiplicity           Mult            ....    1
 Number of Electrons    NEL             ....   58
 Basis Dimension        Dim             ....  132

ORBITAL ENERGIES
----------------

  NO   OCC          E(Eh)            E(eV)
   0   2.0000     -24.121864      -656.3893
   1   2.0000     -18.510775      -503.7038
   2   2.0000      -9.798253      -266.6240
   3   2.0000      -9.764218      -265.6979
   4   2.0000      -9.746991      -265.2291
   5   2.0000      -9.746983      -265.2289
   6   2.0000      -9.723578      -264.5920
   7   2.0000      -9.723575      -264.5919
   8   2.0000      -0.918982       -25.0068
   9   2.0000      -0.677495       -18.4356
  10   2.0000      -0.572931       -15.5902
  11   2.0000      -0.488990       -13.3061
  12   2.0000      -0.448160       -12.1950
  13   2.0000      -0.367440        -9.9985
  14   2.0000      -0.342684        -9.3249
  15   2.0000      -0.305122        -8.3028
  16   2.0000      -0.248370        -6.7585
  17   2.0000      -0.228461        -6.2167
  18   2.0000      -0.226050        -6.1511
  19   2.0000      -0.200458        -5.4547
  20   2.0000      -0.196979        -5.3601
  21   2.0000      -0.169051        -4.6001
  22   2.0000      -0.147646        -4.0177
  23   2.0000      -0.129729        -3.5301
  24   2.0000      -0.118775        -3.2320
  25   2.0000      -0.083827        -2.2811
  26   2.0000      -0.052662        -1.4330
  27   2.0000       0.020940         0.5698
  28   2.0000       0.031284         0.8513
  29   0.0000       0.137119         3.7312
  30   0.0000       0.181507         4.9391
  31   0.0000       0.193440         5.2638
  32   0.0000       0.223900         6.0926
  33   0.0000       0.257056         6.9948

MULLIKEN ATOMIC CHARGES
-----------------------
   0 C :   -0.143404
   1 C :   -0.056279
   2 C :    0.178573
   3 C :   -0.056486
   4 C :   -0.143215
   5 C :    0.144884
   6 O :   -0.374690
   7 F :   -0.248028
   8 H :   -0.080643
   9 H :   -0.070032
  10 H :   -0.070017
  11 H :   -0.080663
Sum of atomic charges:   -1.0000000

LOEWDIN ATOMIC CHARGES
----------------------
   0 C :   -0.127380
   1 C :   -0.103853
   2 C :   -0.017237
   3 C :   -0.103882
   4 C :   -0.127351
   5 C :   -0.030975
   6 O :   -0.364602
   7 F :   -0.131250
   8 H :   -0.002789
   9 H :    0.006056
  10 H :    0.006057
  11 H :   -0.002793

  Mayer bond orders larger than 0.100000
B(  0-C ,  1-C ) :   1.3550 B(  0-C ,  5-C ) :   1.1405 B(  0-C ,  8-H ) :   0.9520
B(  1-C ,  2-C ) :   1.3309 B(  1-C ,  9-H ) :   0.9602 B(  2-C ,  3-C ) :   1.3310
B(  2-C ,  7-F ) :   1.0119 B(  3-C ,  4-C ) :   1.3550 B(  3-C , 10-H ) :   0.9602
B(  4-C ,  5-C ) :   1.1405 B(  4-C , 11-H ) :   0.9520 B(  5-C ,  6-O ) :   1.8721

Dispersion correction           -0.017003727
FINAL SINGLE POINT ENERGY      -405.862193845293

DIPOLE MOMENT
-------------
                                X             Y             Z
Electronic contribution:     -4.30767       1.38935      -0.00461
Nuclear contribution   :      2.62861      -0.84791       0.00281
                        -----------------------------------------
Total Dipole Moment    :     -1.67906       0.54144      -0.00180
                        -----------------------------------------
Magnitude (a.u.)       :      1.76420
Magnitude (Debye)      :      4.48423

Rotational constants in cm-1:     0.186805     0.047990     0.038181
Rotational constants in MHz :  5600.276146  1438.711642  1144.650728

                             ****ORCA TERMINATED NORMALLY****
TOTAL RUN TIME: 0 days 0 hours 0 minutes 38 seconds 34 msec
