                         Program Version 5.0.1 -  RELEASE  -
|  1> ! Opt BP86 def2-SVP def2/J RIJCOSX D4
|  2> %geom MaxIter 100 end
|  3> %output
|  4> xyzfile=True
|  5> end
|  6> %scf
|  7> maxiter 250
|  8> end
|  9> %output
| 10> Print[P_Hirshfeld] = 1
| 11> end
| 12> % maxcore
| 13> 4000
| 14> %pal nprocs 8
| 15> end
| 16> *xyz 0 1
| 17> C    0.52601396  -1.10499033   0.05424617
| 18> C   -0.77962919  -1.14833725   0.50844850
| 19> C   -1.52225388   0.01662773   0.51595074
| 20> C   -0.99375235   1.21985668   0.08271808
| 21> C    0.30984909   1.25566826  -0.36974521
| 22> C    1.07700434   0.09330021  -0.38709760
| 23> O    2.35388366   0.17495255  -0.84427136
| 24> F   -2.79922504  -0.02073981   0.95826922
| 25> H    1.12078522  -2.00839083   0.04183330
| 26> H   -1.21929080  -2.07084246   0.85235713
| 27> H   -1.60132650   2.11029792   0.10249230
| 28> H    0.75339309   2.17529078  -0.71475402
| 29> H    2.77444840  -0.69259345  -0.80044725
| 30> *
| 31>
| 32>                          ****END OF INPUT****
 Total Charge           Charge          ....    0
 Multiplicity           Mult            ....    1
 Number of Electrons    NEL             ....   58
Dispersion correction           -0.016423629
FINAL SINGLE POINT ENERGY      -406.426773208007
Dispersion correction            ... Starting D4
Dispersion correction           -0.016295841
FINAL SINGLE POINT ENERGY      -406.430145537949
Dispersion correction            ... Starting D4
Dispersion correction           -0.016274992
FINAL SINGLE POINT ENERGY      -406.430243693971
Dispersion correction            ... Starting D4
Dispersion correction           -0.016272929
FINAL SINGLE POINT ENERGY      -406.430251910479
Dispersion correction            ... Starting D4
Dispersion correction           -0.016273633
FINAL SINGLE POINT ENERGY      -406.430253710745
Dispersion correction            ... Starting D4
                    ***********************HURRAY********************

CARTESIAN COORDINATES (ANGSTROEM)
---------------------------------
  C      0.534689   -1.120767    0.053510
  C     -0.790977   -1.161531    0.514692
  C     -1.547752    0.015661    0.525079
  C     -1.004216    1.230326    0.083396
  C      0.318638    1.267542   -0.376010
  C      1.098402    0.091754   -0.394384
  O      2.381316    0.188759   -0.852555
  F     -2.824172   -0.018760    0.968622
  H      1.137127   -2.044234    0.042506
  H     -1.242839   -2.100045    0.866704
  H     -1.624839    2.137851    0.104010
  H      0.769290    2.206847   -0.727632
  H      2.795233   -0.693304   -0.807939

 Multiplicity           Mult            ....    1
 Number of Electrons    NEL             ....   58
 Basis Dimension        Dim             ....  137

ORBITAL ENERGIES
----------------

  NO   OCC          E(Eh)            E(eV)
   0   2.0000     -24.291806      -661.0136
   1   2.0000     -18.816140      -512.0132
   2   2.0000      -9.990193      -271.8470
   3   2.0000      -9.980325      -271.5785
   4   2.0000      -9.930013      -270.2094
   5   2.0000      -9.928607      -270.1711
   6   2.0000      -9.927039      -270.1285
   7   2.0000      -9.924302      -270.0540
   8   2.0000      -1.098807       -29.9001
   9   2.0000      -0.969325       -26.3767
  10   2.0000      -0.776140       -21.1198
  11   2.0000      -0.683359       -18.5952
  12   2.0000      -0.665314       -18.1041
  13   2.0000      -0.575859       -15.6699
  14   2.0000      -0.551431       -15.0052
  15   2.0000      -0.501380       -13.6432
  16   2.0000      -0.484709       -13.1896
  17   2.0000      -0.446084       -12.1386
  18   2.0000      -0.404079       -10.9955
  19   2.0000      -0.403447       -10.9784
  20   2.0000      -0.388738       -10.5781
  21   2.0000      -0.380164       -10.3448
  22   2.0000      -0.365619        -9.9490
  23   2.0000      -0.358289        -9.7495
  24   2.0000      -0.323379        -8.7996
  25   2.0000      -0.301128        -8.1941
  26   2.0000      -0.290918        -7.9163
  27   2.0000      -0.240845        -6.5537
  28   2.0000      -0.196630        -5.3506
  29   0.0000      -0.052414        -1.4262
  30   0.0000      -0.025056        -0.6818
  31   0.0000       0.019564         0.5324
  32   0.0000       0.039348         1.0707
  33   0.0000       0.077838         2.1181

MULLIKEN ATOMIC CHARGES
-----------------------
   0 C :   -0.064982
   1 C :   -0.076711
   2 C :    0.257904
   3 C :   -0.071515
   4 C :   -0.036282
   5 C :    0.136816
   6 O :   -0.171925
   7 F :   -0.174568
   8 H :   -0.012291
   9 H :    0.011405
  10 H :    0.013203
  11 H :    0.007553
  12 H :    0.181393
Sum of atomic charges:    0.0000000

LOEWDIN ATOMIC CHARGES
----------------------
   0 C :   -0.078012
   1 C :   -0.053964
   2 C :    0.051842
   3 C :   -0.051351
   4 C :   -0.048134
   5 C :    0.028332
   6 O :   -0.043082
   7 F :   -0.058100
   8 H :    0.030651
   9 H :    0.041865
  10 H :    0.042598
  11 H :    0.040253
  12 H :    0.097103

  Mayer bond orders larger than 0.100000
B(  0-C ,  1-C ) :   1.3442 B(  0-C ,  5-C ) :   1.3180 B(  0-C ,  8-H ) :   0.9696
B(  1-C ,  2-C ) :   1.3603 B(  1-C ,  9-H ) :   0.9746 B(  2-C ,  3-C ) :   1.3410
B(  2-C ,  7-F ) :   1.0936 B(  3-C ,  4-C ) :   1.3595 B(  3-C , 10-H ) :   0.9782
B(  4-C ,  5-C ) :   1.3453 B(  4-C , 11-H ) :   0.9784 B(  5-C ,  6-O ) :   1.2040
B(  6-O , 12-H ) :   0.9588

Dispersion correction           -0.016274185
FINAL SINGLE POINT ENERGY      -406.430253918091

DIPOLE MOMENT
-------------
                                X             Y             Z
Electronic contribution:     -4.75785       0.16009       1.59129
Nuclear contribution   :      5.39787      -0.64606      -1.70741
                        -----------------------------------------
Total Dipole Moment    :      0.64002      -0.48597      -0.11612
                        -----------------------------------------
Magnitude (a.u.)       :      0.81196
Magnitude (Debye)      :      2.06383

Rotational constants in cm-1:     0.185107     0.047741     0.037953
Rotational constants in MHz :  5549.362855  1431.252153  1137.799133

                             ****ORCA TERMINATED NORMALLY****
TOTAL RUN TIME: 0 days 0 hours 0 minutes 38 seconds 396 msec
