   * xtb version 6.4.1 (bd6e46d) compiled by 'conda@4901f00b25ba' on 2021-06-10
          program call               : /jet/home/maihfly/.conda/envs/Cyclodextrins-Env/bin/xtb p-fluorophenolate_opt_xtb.xyz --chrg -1 --uhf 0 --opt
          number of atoms            :                    12
          number of electrons        :                    42
          charge                     :                    -1
          spin                       :                   0.0

   ID    Z sym.   atoms
    1    6 C      1-6
    2    8 O      7
    3    9 F      8
    4    1 H      9-12

          :  Hamiltonian                  GFN2-xTB          :
 * total energy  :   -23.8703277 Eh     change       -0.1268710E-09 Eh
 * total energy  :   -23.8837307 Eh     change       -0.1340299E-01 Eh
 * total energy  :   -23.8870078 Eh     change       -0.3277098E-02 Eh
 * total energy  :   -23.8876927 Eh     change       -0.6849067E-03 Eh
 * total energy  :   -23.8877272 Eh     change       -0.3446104E-04 Eh
 * total energy  :   -23.8877339 Eh     change       -0.6745429E-05 Eh
 * total energy  :   -23.8877345 Eh     change       -0.5641917E-06 Eh
   *** GEOMETRY OPTIMIZATION CONVERGED AFTER 7 ITERATIONS ***

 final structure:
================
12
 xtb: 6.4.1 (bd6e46d)
C         1.02265695072775    0.93639607499304   -0.00707640708658
C        -0.28475183536013    1.35757584218859   -0.00845156072927
C        -1.30189577030411    0.41992426553043   -0.00135462559669
C        -1.02415322216721   -0.93535552204266    0.00710695680404
C         0.28287742447479   -1.35758917082376    0.00848921906371
C         1.39215047745416   -0.44897591665244    0.00148910964140
O         2.58982208943002   -0.83505881466670    0.00273522650448
F        -2.62609355245044    0.84686212245962   -0.00274956676971
H         1.82178302853580    1.66868474908092   -0.01262589266177
H        -0.53321296934777    2.41333065483849   -0.01500991488273
H        -1.84269632515473   -1.64706590376781    0.01254053517380
H         0.50341370416187   -2.41872838113771    0.01510692053933

          :  Hamiltonian                  GFN2-xTB          :
         :: total energy             -23.887734472101 Eh    ::
         :: gradient norm              0.000261619776 Eh/a0 ::
         :: HOMO-LUMO gap              3.103181083937 eV    ::
         :: SCC energy               -24.184864426822 Eh    ::
         :: -> dispersion             -0.009861715163 Eh    ::
         :: repulsion energy           0.297120496719 Eh    ::

    * Orbital Energies and Occupations

         #    Occupation            Energy/Eh            Energy/eV
      -------------------------------------------------------------
         1        2.0000           -0.6421270             -17.4732
       ...           ...                  ...                  ...
         9        2.0000           -0.3518356              -9.5739
        10        2.0000           -0.3469883              -9.4420
        11        2.0000           -0.3376990              -9.1893
        12        2.0000           -0.3141790              -8.5492
        13        2.0000           -0.3078482              -8.3770
        14        2.0000           -0.3057920              -8.3210
        15        2.0000           -0.3032504              -8.2519
        16        2.0000           -0.2672125              -7.2712
        17        2.0000           -0.2615551              -7.1173
        18        2.0000           -0.2594732              -7.0606
        19        2.0000           -0.2318670              -6.3094
        20        2.0000           -0.1678379              -4.5671
        21        2.0000           -0.1613776              -4.3913 (HOMO)
        22                         -0.0473378              -1.2881 (LUMO)
        23                         -0.0168333              -0.4581
        24                          0.0947795               2.5791
        25                          0.1825340               4.9670
        26                          0.2836523               7.7186
        27                          0.3181094               8.6562
        28                          0.3290268               8.9533
        29                          0.3727756              10.1437
        30                          0.4121445              11.2150
        31                          0.5539755              15.0744
        32                          0.6067855              16.5115
       ...                                ...                  ...
        36                          0.8666531              23.5828
      -------------------------------------------------------------
                  HL-Gap            0.1140398 Eh            3.1032 eV

     #   Z          covCN         q      C6AA      α(0)
     1   6 C        2.922    -0.100    30.528     9.061
     2   6 C        2.908    -0.066    29.637     8.927
     3   6 C        2.785     0.102    25.723     8.308
     4   6 C        2.908    -0.066    29.637     8.927
     5   6 C        2.922    -0.100    30.528     9.061
     6   6 C        2.828     0.180    24.129     8.049
     7   8 O        0.857    -0.601    26.141     6.855
     8   9 F        0.783    -0.312    12.459     4.169
     9   1 H        0.925    -0.009     3.222     2.807
    10   1 H        0.925    -0.010     3.230     2.810
    11   1 H        0.925    -0.010     3.230     2.811
    12   1 H        0.925    -0.009     3.222     2.807

Wiberg/Mayer (AO) data.
largest (>0.10) Wiberg bond orders for each atom

     #   Z sym  total        # sym  WBO       # sym  WBO       # sym  WBO
 ---------------------------------------------------------------------------
     1   6 C    3.976 --     2 C    1.506     6 C    1.202     9 H    0.972
                             7 O    0.107
     2   6 C    3.986 --     1 C    1.506     3 C    1.366    10 H    0.968
     3   6 C    3.829 --     2 C    1.366     4 C    1.366     8 F    0.880
     4   6 C    3.986 --     5 C    1.506     3 C    1.366    11 H    0.968
     5   6 C    3.976 --     4 C    1.506     6 C    1.202    12 H    0.972
                             7 O    0.107
     6   6 C    3.972 --     7 O    1.477     1 C    1.202     5 C    1.202
     7   8 O    1.796 --     6 C    1.477     5 C    0.107     1 C    0.107
     8   9 F    0.976 --     3 C    0.880
     9   1 H    1.000 --     1 C    0.972
    10   1 H    1.000 --     2 C    0.968
    11   1 H    1.000 --     4 C    0.968
    12   1 H    1.000 --     5 C    0.972
 ---------------------------------------------------------------------------

molecular dipole:
                 x           y           z       tot (Debye)
 q only:       -1.251       0.403      -0.001
   full:       -1.537       0.495      -0.002       4.104

           -------------------------------------------------
          | TOTAL ENERGY              -23.887734472101 Eh   |
          | GRADIENT NORM               0.000261619776 Eh/α |
          | HOMO-LUMO GAP               3.103181083937 eV   |
           -------------------------------------------------

 * finished run on 2022/03/19 at 15:14:14.278
