   * xtb version 6.4.1 (bd6e46d) compiled by 'conda@4901f00b25ba' on 2021-06-10
          program call               : /jet/home/maihfly/.conda/envs/Cyclodextrins-Env/bin/xtb p-fluorophenol_opt_xtb.xyz --chrg 0 --uhf 0 --opt
          number of atoms            :                    13
          number of electrons        :                    42
          charge                     :                     0
          spin                       :                   0.0

   ID    Z sym.   atoms
    1    6 C      1-6
    2    8 O      7
    3    9 F      8
    4    1 H      9-13

          :  Hamiltonian                  GFN2-xTB          :
 * total energy  :   -24.1673092 Eh     change       -0.9947243E-10 Eh
 * total energy  :   -24.1734732 Eh     change       -0.6164009E-02 Eh
 * total energy  :   -24.1743242 Eh     change       -0.8509841E-03 Eh
 * total energy  :   -24.1743938 Eh     change       -0.6961081E-04 Eh
 * total energy  :   -24.1744819 Eh     change       -0.8807247E-04 Eh
 * total energy  :   -24.1745445 Eh     change       -0.6257605E-04 Eh
 * total energy  :   -24.1747461 Eh     change       -0.2016429E-03 Eh
 * total energy  :   -24.1758820 Eh     change       -0.1135846E-02 Eh
 * total energy  :   -24.1761462 Eh     change       -0.2642652E-03 Eh
 * total energy  :   -24.1762149 Eh     change       -0.6870641E-04 Eh
 * total energy  :   -24.1812381 Eh     change       -0.9917423E-03 Eh
 * total energy  :   -24.1817019 Eh     change       -0.4638105E-03 Eh
 * total energy  :   -24.1824196 Eh     change       -0.7177026E-03 Eh
 * total energy  :   -24.1829080 Eh     change       -0.4883998E-03 Eh
 * total energy  :   -24.1832083 Eh     change       -0.3003473E-03 Eh
 * total energy  :   -24.1832932 Eh     change       -0.8486295E-04 Eh
 * total energy  :   -24.1832623 Eh     change        0.3087469E-04 Eh
 * total energy  :   -24.1833289 Eh     change       -0.6660922E-04 Eh
 * total energy  :   -24.1833334 Eh     change       -0.4468167E-05 Eh
   *** GEOMETRY OPTIMIZATION CONVERGED AFTER 21 ITERATIONS ***

 final structure:
================
13
 xtb: 6.4.1 (bd6e46d)
C         0.52601396396215   -1.10499032857550    0.05424617244381
C        -0.77962919337734   -1.14833724937606    0.50844849695687
C        -1.52225388014233    0.01662773090903    0.51595073573101
C        -0.99375234813470    1.21985668088854    0.08271807568757
C         0.30984908887074    1.25566826427545   -0.36974521263471
C         1.07700433712382    0.09330021257828   -0.38709759521010
O         2.35388366006142    0.17495254769796   -0.84427135695322
F        -2.79922504325237   -0.02073981061151    0.95826922066946
H         1.12078522337416   -2.00839083365529    0.04183329705499
H        -1.21929080108769   -2.07084246439243    0.85235713067529
H        -1.60132649695043    2.11029791697661    0.10249230090436
H         0.75339309011510    2.17529078298210   -0.71475401766177
H         2.77444839943742   -0.69259344969717   -0.80044724766358

          :  Hamiltonian                  GFN2-xTB          :
         :: total energy             -24.183333402956 Eh    ::
         :: gradient norm              0.000685846949 Eh/a0 ::
         :: HOMO-LUMO gap              4.105920308772 eV    ::
         :: SCC energy               -24.500775083837 Eh    ::
         :: -> dispersion             -0.009295455489 Eh    ::
         :: repulsion energy           0.317430917465 Eh    ::

    * Orbital Energies and Occupations

         #    Occupation            Energy/Eh            Energy/eV
      -------------------------------------------------------------
         1        2.0000           -0.8118876             -22.0926
       ...           ...                  ...                  ...
         9        2.0000           -0.5552781             -15.1099
        10        2.0000           -0.5471502             -14.8887
        11        2.0000           -0.5386920             -14.6586
        12        2.0000           -0.5230903             -14.2340
        13        2.0000           -0.5140774             -13.9888
        14        2.0000           -0.5054620             -13.7543
        15        2.0000           -0.4953544             -13.4793
        16        2.0000           -0.4762537             -12.9595
        17        2.0000           -0.4714097             -12.8277
        18        2.0000           -0.4639931             -12.6259
        19        2.0000           -0.4358210             -11.8593
        20        2.0000           -0.4239481             -11.5362
        21        2.0000           -0.3934308             -10.7058 (HOMO)
        22                         -0.2425410              -6.5999 (LUMO)
        23                         -0.2266900              -6.1685
        24                         -0.1042282              -2.8362
        25                          0.0428541               1.1661
        26                          0.0683981               1.8612
        27                          0.1247259               3.3940
        28                          0.1394234               3.7939
        29                          0.1649854               4.4895
        30                          0.1845784               5.0226
        31                          0.1984717               5.4007
        32                          0.3692097              10.0467
       ...                                ...                  ...
        37                          0.6537714              17.7900
      -------------------------------------------------------------
                  HL-Gap            0.1508898 Eh            4.1059 eV

     #   Z          covCN         q      C6AA      α(0)
     1   6 C        2.923    -0.069    29.731     8.942
     2   6 C        2.917    -0.049    29.215     8.863
     3   6 C        2.787     0.159    24.542     8.115
     4   6 C        2.917    -0.048    29.198     8.861
     5   6 C        2.923    -0.052    29.295     8.876
     6   6 C        2.845     0.143    24.872     8.173
     7   8 O        1.660    -0.385    20.551     6.120
     8   9 F        0.787    -0.230    11.545     4.014
     9   1 H        0.925     0.039     2.458     2.452
    10   1 H        0.926     0.060     2.195     2.317
    11   1 H        0.926     0.064     2.158     2.297
    12   1 H        0.926     0.064     2.157     2.296
    13   1 H        0.805     0.303     0.711     1.325

Wiberg/Mayer (AO) data.
largest (>0.10) Wiberg bond orders for each atom

     #   Z sym  total        # sym  WBO       # sym  WBO       # sym  WBO
 ---------------------------------------------------------------------------
     1   6 C    3.987 --     2 C    1.443     6 C    1.375     9 H    0.966
                             4 C    0.106
     2   6 C    3.990 --     1 C    1.443     3 C    1.400    10 H    0.967
                             5 C    0.109
     3   6 C    3.886 --     2 C    1.400     4 C    1.388     8 F    0.954
     4   6 C    3.990 --     5 C    1.460     3 C    1.388    11 H    0.967
                             1 C    0.106
     5   6 C    3.988 --     4 C    1.460     6 C    1.361    12 H    0.967
                             2 C    0.109
     6   6 C    3.942 --     1 C    1.375     5 C    1.361     7 O    1.079
     7   8 O    2.125 --     6 C    1.079    13 H    0.887
     8   9 F    1.079 --     3 C    0.954
     9   1 H    0.998 --     1 C    0.966
    10   1 H    0.996 --     2 C    0.967
    11   1 H    0.996 --     4 C    0.967
    12   1 H    0.996 --     5 C    0.967
    13   1 H    0.908 --     7 O    0.887
 ---------------------------------------------------------------------------

molecular dipole:
                 x           y           z       tot (Debye)
 q only:        0.833      -0.338      -0.209
   full:        0.904      -0.563      -0.185       2.746

           -------------------------------------------------
          | TOTAL ENERGY              -24.183333402956 Eh   |
          | GRADIENT NORM               0.000685846949 Eh/α |
          | HOMO-LUMO GAP               4.105920308772 eV   |
           -------------------------------------------------

 * finished run on 2022/03/19 at 15:14:14.213
