                         Program Version 5.0.1 -  RELEASE  -
|  1> ! Freq PBE0 def2-SVP def2/J RIJCOSX D4
|  2> %output
|  3> xyzfile=True
|  4> end
|  5> %scf
|  6> maxiter 250
|  7> end
|  8> %output
|  9> Print[P_Hirshfeld] = 1
| 10> end
| 11> % maxcore
| 12> 4000
| 13> %pal nprocs 8
| 14> end
| 15> *xyz -1 1
| 16> C    1.03635198   0.94718107  -0.00717115
| 17> C   -0.29813111   1.37456818  -0.00854567
| 18> C   -1.33788970   0.43142946  -0.00137928
| 19> C   -1.04502292  -0.94146452   0.00716646
| 20> C    0.28774093  -1.37419374   0.00857687
| 21> C    1.43362528  -0.46233896   0.00146834
| 22> O    2.63900246  -0.85103227   0.00282623
| 23> F   -2.65434453   0.85611628  -0.00278028
| 24> H    1.85606297   1.68722645  -0.01276717
| 25> H   -0.55603653   2.44877935  -0.01521146
| 26> H   -1.88198328  -1.66254884   0.01268603
| 27> H    0.52052442  -2.45372245   0.01533110
| 28> *
| 29>
| 30>                          ****END OF INPUT****

CARTESIAN COORDINATES (ANGSTROEM)
---------------------------------
  C      1.036352    0.947181   -0.007171
  C     -0.298131    1.374568   -0.008546
  C     -1.337890    0.431429   -0.001379
  C     -1.045023   -0.941465    0.007166
  C      0.287741   -1.374194    0.008577
  C      1.433625   -0.462339    0.001468
  O      2.639002   -0.851032    0.002826
  F     -2.654345    0.856116   -0.002780
  H      1.856063    1.687226   -0.012767
  H     -0.556037    2.448779   -0.015211
  H     -1.881983   -1.662549    0.012686
  H      0.520524   -2.453722    0.015331

 Total Charge           Charge          ....   -1
 Multiplicity           Mult            ....    1
 Number of Electrons    NEL             ....   58
 Basis Dimension        Dim             ....  132

ORBITAL ENERGIES
----------------

  NO   OCC          E(Eh)            E(eV)
   0   2.0000     -24.608642      -669.6352
   1   2.0000     -18.939839      -515.3792
   2   2.0000     -10.125613      -275.5319
   3   2.0000     -10.093150      -274.6486
   4   2.0000     -10.074442      -274.1395
   5   2.0000     -10.074389      -274.1381
   6   2.0000     -10.048550      -273.4349
   7   2.0000     -10.048501      -273.4336
   8   2.0000      -1.050697       -28.5909
   9   2.0000      -0.789564       -21.4851
  10   2.0000      -0.674595       -18.3567
  11   2.0000      -0.582755       -15.8576
  12   2.0000      -0.539244       -14.6736
  13   2.0000      -0.447469       -12.1762
  14   2.0000      -0.420931       -11.4541
  15   2.0000      -0.375992       -10.2312
  16   2.0000      -0.321608        -8.7514
  17   2.0000      -0.304554        -8.2873
  18   2.0000      -0.293878        -7.9968
  19   2.0000      -0.260939        -7.1005
  20   2.0000      -0.258566        -7.0359
  21   2.0000      -0.241466        -6.5706
  22   2.0000      -0.206647        -5.6232
  23   2.0000      -0.193812        -5.2739
  24   2.0000      -0.176306        -4.7975
  25   2.0000      -0.137480        -3.7410
  26   2.0000      -0.094056        -2.5594
  27   2.0000      -0.037389        -1.0174
  28   2.0000      -0.003579        -0.0974
  29   0.0000       0.168630         4.5887
  30   0.0000       0.215658         5.8683
  31   0.0000       0.225097         6.1252
  32   0.0000       0.253257         6.8915
  33   0.0000       0.287524         7.8239

MULLIKEN ATOMIC CHARGES
-----------------------
   0 C :   -0.167872
   1 C :   -0.072512
   2 C :    0.194757
   3 C :   -0.072954
   4 C :   -0.168038
   5 C :    0.188387
   6 O :   -0.449756
   7 F :   -0.294629
   8 H :   -0.044040
   9 H :   -0.034721
  10 H :   -0.034738
  11 H :   -0.043886
Sum of atomic charges:   -1.0000000

LOEWDIN ATOMIC CHARGES
----------------------
   0 C :   -0.134773
   1 C :   -0.098016
   2 C :   -0.009191
   3 C :   -0.098022
   4 C :   -0.134820
   5 C :   -0.006102
   6 O :   -0.400493
   7 F :   -0.153563
   8 H :    0.004316
   9 H :    0.013168
  10 H :    0.013141
  11 H :    0.004355

  Mayer bond orders larger than 0.100000
B(  0-C ,  1-C ) :   1.3782 B(  0-C ,  5-C ) :   1.1533 B(  0-C ,  8-H ) :   0.9670
B(  1-C ,  2-C ) :   1.3457 B(  1-C ,  9-H ) :   0.9722 B(  2-C ,  3-C ) :   1.3458
B(  2-C ,  7-F ) :   0.9560 B(  3-C ,  4-C ) :   1.3783 B(  3-C , 10-H ) :   0.9722
B(  4-C ,  5-C ) :   1.1534 B(  4-C , 11-H ) :   0.9670 B(  5-C ,  6-O ) :   1.8246

Dispersion correction           -0.010834092
FINAL SINGLE POINT ENERGY      -405.399258775121

DIPOLE MOMENT
-------------
                                X             Y             Z
Electronic contribution:     -4.36892       1.40913      -0.00468
Nuclear contribution   :      2.62861      -0.84791       0.00281
                        -----------------------------------------
Total Dipole Moment    :     -1.74031       0.56121      -0.00187
                        -----------------------------------------
Magnitude (a.u.)       :      1.82856
Magnitude (Debye)      :      4.64783

Dispersion correction in the Hessian             ... Starting D4

VIBRATIONAL FREQUENCIES
-----------------------

Scaling factor for frequencies =  1.000000000  (already applied!)

   0:         0.00 cm**-1
   1:         0.00 cm**-1
   2:         0.00 cm**-1
   3:         0.00 cm**-1
   4:         0.00 cm**-1
   5:         0.00 cm**-1
   6:       173.27 cm**-1
   7:       358.26 cm**-1
   8:       362.43 cm**-1
   9:       455.00 cm**-1
  10:       461.39 cm**-1
  11:       479.36 cm**-1
  12:       534.91 cm**-1
  13:       633.96 cm**-1
  14:       720.60 cm**-1
  15:       744.08 cm**-1
  16:       819.10 cm**-1
  17:       820.38 cm**-1
  18:       872.64 cm**-1
  19:       953.31 cm**-1
  20:       965.78 cm**-1
  21:       981.05 cm**-1
  22:      1073.56 cm**-1
  23:      1127.30 cm**-1
  24:      1202.60 cm**-1
  25:      1218.82 cm**-1
  26:      1280.53 cm**-1
  27:      1408.05 cm**-1
  28:      1445.65 cm**-1
  29:      1557.09 cm**-1
  30:      1579.33 cm**-1
  31:      1659.57 cm**-1
  32:      3082.82 cm**-1
  33:      3083.64 cm**-1
  34:      3103.27 cm**-1
  35:      3107.37 cm**-1

IR SPECTRUM
-----------

 Mode   freq       eps      Int      T**2         TX        TY        TZ
       cm**-1   L/(mol*cm) km/mol    a.u.
----------------------------------------------------------------------------
  6:    173.27   0.000460    2.32  0.000828  (-0.000002  0.000065  0.028780)
  7:    358.26   0.000070    0.35  0.000061  ( 0.000032 -0.000036 -0.007792)
  8:    362.43   0.000401    2.02  0.000345  ( 0.005520  0.017734 -0.000117)
  9:    455.00   0.000016    0.08  0.000011  (-0.003149  0.001160 -0.000008)
 10:    461.39   0.000000    0.00  0.000000  (-0.000008 -0.000190 -0.000068)
 11:    479.36   0.000002    0.01  0.000001  (-0.000401 -0.001118  0.000001)
 12:    534.91   0.002042   10.32  0.001191  ( 0.000109  0.000259 -0.034515)
 13:    633.96   0.000015    0.08  0.000008  ( 0.000759  0.002637 -0.000014)
 14:    720.60   0.000208    1.05  0.000090  (-0.000122 -0.000085  0.009493)
 15:    744.08   0.016360   82.68  0.006861  ( 0.078834 -0.025427  0.000081)
 16:    819.10   0.002517   12.72  0.000959  (-0.029368  0.009821 -0.000029)
 17:    820.38   0.000001    0.01  0.000000  (-0.000615 -0.000077 -0.000168)
 18:    872.64   0.013303   67.23  0.004757  (-0.000042  0.000015  0.068974)
 19:    953.31   0.000073    0.37  0.000024  ( 0.000060 -0.000219  0.004890)
 20:    965.78   0.000000    0.00  0.000000  (-0.000242 -0.000161 -0.000231)
 21:    981.05   0.000198    1.00  0.000063  (-0.007391  0.002907 -0.000011)
 22:   1073.56   0.004729   23.90  0.001375  (-0.011129 -0.035364  0.000259)
 23:   1127.30   0.000985    4.98  0.000273  (-0.015797  0.004821 -0.000015)
 24:   1202.60   0.019232   97.19  0.004990  ( 0.067192 -0.021810  0.000071)
 25:   1218.82   0.001777    8.98  0.000455  (-0.006552 -0.020298  0.000116)
 26:   1280.53   0.001748    8.84  0.000426  (-0.006092 -0.019722  0.000120)
 27:   1408.05   0.000011    0.05  0.000002  (-0.001343  0.000742 -0.000005)
 28:   1445.65   0.006911   34.92  0.001492  ( 0.012174  0.036654 -0.000260)
 29:   1557.09   0.002829   14.30  0.000567  ( 0.007213  0.022692 -0.000147)
 30:   1579.33   0.059398  300.18  0.011737  (-0.103157  0.033094 -0.000110)
 31:   1659.57   0.048844  246.84  0.009185  (-0.091208  0.029422 -0.000095)
 32:   3082.82   0.012202   61.66  0.001235  ( 0.033653 -0.010132  0.000029)
 33:   3083.64   0.000298    1.51  0.000030  (-0.001295 -0.005336  0.000036)
 34:   3103.27   0.018016   91.05  0.001812  ( 0.013132  0.040486 -0.000274)
 35:   3107.37   0.000045    0.23  0.000004  ( 0.001741 -0.001211  0.000005)

--------------------------
THERMOCHEMISTRY AT 298.15K
--------------------------

Temperature         ... 298.15 K
Pressure            ... 1.00 atm
Total Mass          ... 111.09 AMU

Throughout the following assumptions are being made:
  (1) The electronic state is orbitally nondegenerate
  (2) There are no thermally accessible electronically excited states
  (3) Hindered rotations indicated by low frequency modes are not
      treated as such but are treated as vibrations and this may
      cause some error
  (4) All equations used are the standard statistical mechanics
      equations for an ideal gas
  (5) All vibrations are strictly harmonic

freq.     173.27  E(vib)   ...       0.38
freq.     358.26  E(vib)   ...       0.22
freq.     362.43  E(vib)   ...       0.22
freq.     455.00  E(vib)   ...       0.16
freq.     461.39  E(vib)   ...       0.16
freq.     479.36  E(vib)   ...       0.15
freq.     534.91  E(vib)   ...       0.13
freq.     633.96  E(vib)   ...       0.09
freq.     720.60  E(vib)   ...       0.07
freq.     744.08  E(vib)   ...       0.06
freq.     819.10  E(vib)   ...       0.05
freq.     820.38  E(vib)   ...       0.05
freq.     872.64  E(vib)   ...       0.04
freq.     953.31  E(vib)   ...       0.03
freq.     965.78  E(vib)   ...       0.03
freq.     981.05  E(vib)   ...       0.02
freq.    1073.56  E(vib)   ...       0.02
freq.    1127.30  E(vib)   ...       0.01
freq.    1202.60  E(vib)   ...       0.01
freq.    1218.82  E(vib)   ...       0.01
freq.    1280.53  E(vib)   ...       0.01
freq.    1408.05  E(vib)   ...       0.00
freq.    1445.65  E(vib)   ...       0.00
freq.    1557.09  E(vib)   ...       0.00
freq.    1579.33  E(vib)   ...       0.00
freq.    1659.57  E(vib)   ...       0.00
freq.    3082.82  E(vib)   ...       0.00
freq.    3083.64  E(vib)   ...       0.00
freq.    3103.27  E(vib)   ...       0.00
freq.    3107.37  E(vib)   ...       0.00

------------
INNER ENERGY
------------

The inner energy is: U= E(el) + E(ZPE) + E(vib) + E(rot) + E(trans)
    E(el)   - is the total energy from the electronic structure calculation
              = E(kin-el) + E(nuc-el) + E(el-el) + E(nuc-nuc)
    E(ZPE)  - the the zero temperature vibrational energy from the frequency calculation
    E(vib)  - the the finite temperature correction to E(ZPE) due to population
              of excited vibrational states
    E(rot)  - is the rotational thermal energy
    E(trans)- is the translational thermal energy

Summary of contributions to the inner energy U:
Electronic energy                ...   -405.39925878 Eh
Zero point energy                ...      0.08261807 Eh      51.84 kcal/mol
Thermal vibrational correction   ...      0.00304923 Eh       1.91 kcal/mol
Thermal rotational correction    ...      0.00141627 Eh       0.89 kcal/mol
Thermal translational correction ...      0.00141627 Eh       0.89 kcal/mol
-----------------------------------------------------------------------
Total thermal energy                   -405.31075894 Eh

Summary of corrections to the electronic energy:
(perhaps to be used in another calculation)
Total thermal correction                  0.00588177 Eh       3.69 kcal/mol
Non-thermal (ZPE) correction              0.08261807 Eh      51.84 kcal/mol
-----------------------------------------------------------------------
Total correction                          0.08849984 Eh      55.53 kcal/mol

--------
ENTHALPY
--------

The enthalpy is H = U + kB*T
                kB is Boltzmann's constant
Total free energy                 ...   -405.31075894 Eh
Thermal Enthalpy correction       ...      0.00094421 Eh       0.59 kcal/mol
-----------------------------------------------------------------------
Total Enthalpy                    ...   -405.30981473 Eh

Note: Only C1 symmetry has been detected, increase convergence thresholds
      if your molecule has a higher symmetry. Symmetry factor of 1.0 is
      used for the rotational entropy correction.

Note: Rotational entropy computed according to Herzberg
Infrared and Raman Spectra, Chapter V,1, Van Nostrand Reinhold, 1945
Point Group:  C1, Symmetry Number:   1
Rotational constants in cm-1:     0.186805     0.047990     0.038181

Vibrational entropy computed according to the QRRHO of S. Grimme
Chem.Eur.J. 2012 18 9955

-------
ENTROPY
-------

The entropy contributions are T*S = T*(S(el)+S(vib)+S(rot)+S(trans))
     S(el)   - electronic entropy
     S(vib)  - vibrational entropy
     S(rot)  - rotational entropy
     S(trans)- translational entropy
The entropies will be listed as multiplied by the temperature to get
units of energy

Electronic entropy                ...      0.00000000 Eh      0.00 kcal/mol
Vibrational entropy               ...      0.00454240 Eh      2.85 kcal/mol
Rotational entropy                ...      0.01327802 Eh      8.33 kcal/mol
Translational entropy             ...      0.01902026 Eh     11.94 kcal/mol
-----------------------------------------------------------------------
Final entropy term                ...      0.03684068 Eh     23.12 kcal/mol

In case the symmetry of your molecule has not been determined correctly
or in case you have a reason to use a different symmetry number we print
out the resulting rotational entropy values for sn=1,12 :
 --------------------------------------------------------
|  sn= 1 | S(rot)=       0.01327802 Eh      8.33 kcal/mol|
|  sn= 2 | S(rot)=       0.01262357 Eh      7.92 kcal/mol|
|  sn= 3 | S(rot)=       0.01224073 Eh      7.68 kcal/mol|
|  sn= 4 | S(rot)=       0.01196911 Eh      7.51 kcal/mol|
|  sn= 5 | S(rot)=       0.01175842 Eh      7.38 kcal/mol|
|  sn= 6 | S(rot)=       0.01158628 Eh      7.27 kcal/mol|
|  sn= 7 | S(rot)=       0.01144073 Eh      7.18 kcal/mol|
|  sn= 8 | S(rot)=       0.01131465 Eh      7.10 kcal/mol|
|  sn= 9 | S(rot)=       0.01120345 Eh      7.03 kcal/mol|
|  sn=10 | S(rot)=       0.01110397 Eh      6.97 kcal/mol|
|  sn=11 | S(rot)=       0.01101398 Eh      6.91 kcal/mol|
|  sn=12 | S(rot)=       0.01093182 Eh      6.86 kcal/mol|
 --------------------------------------------------------

-------------------
GIBBS FREE ENERGY
-------------------

The Gibbs free energy is G = H - T*S

Total enthalpy                    ...   -405.30981473 Eh
Total entropy correction          ...     -0.03684068 Eh    -23.12 kcal/mol
-----------------------------------------------------------------------
Final Gibbs free energy         ...   -405.34665541 Eh

For completeness - the Gibbs free energy minus the electronic energy
G-E(el)                           ...      0.05260337 Eh     33.01 kcal/mol

                             ****ORCA TERMINATED NORMALLY****
TOTAL RUN TIME: 0 days 0 hours 0 minutes 31 seconds 468 msec
