                         Program Version 5.0.1 -  RELEASE  -
|  1> ! Freq PBE0 def2-SVP def2/J RIJCOSX D4
|  2> %output
|  3> xyzfile=True
|  4> end
|  5> %scf
|  6> maxiter 250
|  7> end
|  8> %output
|  9> Print[P_Hirshfeld] = 1
| 10> end
| 11> % maxcore
| 12> 4000
| 13> %pal nprocs 8
| 14> end
| 15> *xyz 0 1
| 16> C    0.53468883  -1.12076656   0.05351037
| 17> C   -0.79097668  -1.16153101   0.51469197
| 18> C   -1.54775211   0.01566093   0.52507901
| 19> C   -1.00421578   1.23032566   0.08339644
| 20> C    0.31863783   1.26754214  -0.37600970
| 21> C    1.09840231   0.09175406  -0.39438417
| 22> O    2.38131632   0.18875858  -0.85255456
| 23> F   -2.82417207  -0.01875954   0.96862154
| 24> H    1.13712693  -2.04423443   0.04250557
| 25> H   -1.24283940  -2.10004521   0.86670448
| 26> H   -1.62483933   2.13785146   0.10400999
| 27> H    0.76929002   2.20684748  -0.72763225
| 28> H    2.79523311  -0.69330355  -0.80793869
| 29> *
| 30>
| 31>                          ****END OF INPUT****

CARTESIAN COORDINATES (ANGSTROEM)
---------------------------------
  C      0.534689   -1.120767    0.053510
  C     -0.790977   -1.161531    0.514692
  C     -1.547752    0.015661    0.525079
  C     -1.004216    1.230326    0.083396
  C      0.318638    1.267542   -0.376010
  C      1.098402    0.091754   -0.394384
  O      2.381316    0.188759   -0.852555
  F     -2.824172   -0.018760    0.968622
  H      1.137127   -2.044234    0.042506
  H     -1.242839   -2.100045    0.866704
  H     -1.624839    2.137851    0.104010
  H      0.769290    2.206847   -0.727632
  H      2.795233   -0.693304   -0.807939

 Total Charge           Charge          ....    0
 Multiplicity           Mult            ....    1
 Number of Electrons    NEL             ....   58
 Basis Dimension        Dim             ....  137

ORBITAL ENERGIES
----------------

  NO   OCC          E(Eh)            E(eV)
   0   2.0000     -24.777503      -674.2301
   1   2.0000     -19.248641      -523.7822
   2   2.0000     -10.318187      -280.7721
   3   2.0000     -10.307712      -280.4871
   4   2.0000     -10.255520      -279.0669
   5   2.0000     -10.254608      -279.0421
   6   2.0000     -10.252975      -278.9976
   7   2.0000     -10.249527      -278.9038
   8   2.0000      -1.229494       -33.4562
   9   2.0000      -1.082787       -29.4641
  10   2.0000      -0.878062       -23.8933
  11   2.0000      -0.777127       -21.1467
  12   2.0000      -0.757179       -20.6039
  13   2.0000      -0.655373       -17.8336
  14   2.0000      -0.630018       -17.1437
  15   2.0000      -0.570414       -15.5218
  16   2.0000      -0.556702       -15.1486
  17   2.0000      -0.517043       -14.0695
  18   2.0000      -0.478485       -13.0202
  19   2.0000      -0.466840       -12.7034
  20   2.0000      -0.450458       -12.2576
  21   2.0000      -0.444934       -12.1073
  22   2.0000      -0.430149       -11.7049
  23   2.0000      -0.422672       -11.5015
  24   2.0000      -0.390229       -10.6187
  25   2.0000      -0.359320        -9.7776
  26   2.0000      -0.349053        -9.4982
  27   2.0000      -0.280109        -7.6222
  28   2.0000      -0.236182        -6.4268
  29   0.0000      -0.019766        -0.5379
  30   0.0000       0.009227         0.2511
  31   0.0000       0.051697         1.4067
  32   0.0000       0.072782         1.9805
  33   0.0000       0.107964         2.9379

MULLIKEN ATOMIC CHARGES
-----------------------
   0 C :   -0.076507
   1 C :   -0.088223
   2 C :    0.277464
   3 C :   -0.082887
   4 C :   -0.046302
   5 C :    0.150461
   6 O :   -0.231912
   7 F :   -0.223217
   8 H :    0.015947
   9 H :    0.038888
  10 H :    0.040375
  11 H :    0.035272
  12 H :    0.190641
Sum of atomic charges:    0.0000000

LOEWDIN ATOMIC CHARGES
----------------------
   0 C :   -0.079882
   1 C :   -0.052360
   2 C :    0.065805
   3 C :   -0.049736
   4 C :   -0.049033
   5 C :    0.041062
   6 O :   -0.066243
   7 F :   -0.082419
   8 H :    0.034738
   9 H :    0.046317
  10 H :    0.046938
  11 H :    0.044642
  12 H :    0.100168

  Mayer bond orders larger than 0.100000
B(  0-C ,  1-C ) :   1.3602 B(  0-C ,  5-C ) :   1.3346 B(  0-C ,  8-H ) :   0.9757
B(  1-C ,  2-C ) :   1.3800 B(  1-C ,  9-H ) :   0.9794 B(  2-C ,  3-C ) :   1.3579
B(  2-C ,  7-F ) :   1.0362 B(  3-C ,  4-C ) :   1.3778 B(  3-C , 10-H ) :   0.9825
B(  4-C ,  5-C ) :   1.3578 B(  4-C , 11-H ) :   0.9834 B(  5-C ,  6-O ) :   1.1624
B(  6-O , 12-H ) :   0.9596

Dispersion correction           -0.010374285
FINAL SINGLE POINT ENERGY      -405.972515065549

DIPOLE MOMENT
-------------
                                X             Y             Z
Electronic contribution:     -4.74826       0.14185       1.59184
Nuclear contribution   :      5.39787      -0.64606      -1.70741
                        -----------------------------------------
Total Dipole Moment    :      0.64961      -0.50421      -0.11557
                        -----------------------------------------
Magnitude (a.u.)       :      0.83041
Magnitude (Debye)      :      2.11073

Dispersion correction in the Hessian             ... Starting D4

VIBRATIONAL FREQUENCIES
-----------------------

Scaling factor for frequencies =  1.000000000  (already applied!)

   0:         0.00 cm**-1
   1:         0.00 cm**-1
   2:         0.00 cm**-1
   3:         0.00 cm**-1
   4:         0.00 cm**-1
   5:         0.00 cm**-1
   6:       182.78 cm**-1
   7:       362.22 cm**-1
   8:       396.38 cm**-1
   9:       453.67 cm**-1
  10:       460.70 cm**-1
  11:       464.87 cm**-1
  12:       547.54 cm**-1
  13:       561.70 cm**-1
  14:       647.66 cm**-1
  15:       726.85 cm**-1
  16:       753.15 cm**-1
  17:       843.78 cm**-1
  18:       861.05 cm**-1
  19:       879.32 cm**-1
  20:       964.11 cm**-1
  21:       993.13 cm**-1
  22:      1011.75 cm**-1
  23:      1104.08 cm**-1
  24:      1157.69 cm**-1
  25:      1217.85 cm**-1
  26:      1251.66 cm**-1
  27:      1303.13 cm**-1
  28:      1307.62 cm**-1
  29:      1370.15 cm**-1
  30:      1472.38 cm**-1
  31:      1545.95 cm**-1
  32:      1644.47 cm**-1
  33:      1674.56 cm**-1
  34:      3119.95 cm**-1
  35:      3156.70 cm**-1
  36:      3165.78 cm**-1
  37:      3169.29 cm**-1
  38:      3720.66 cm**-1

IR SPECTRUM
-----------

 Mode   freq       eps      Int      T**2         TX        TY        TZ
       cm**-1   L/(mol*cm) km/mol    a.u.
----------------------------------------------------------------------------
  6:    182.78   0.000040    0.20  0.000068  ( 0.002902  0.001765  0.007519)
  7:    362.22   0.000794    4.01  0.000684  (-0.022940  0.011357  0.005378)
  8:    396.38   0.000102    0.51  0.000080  (-0.002857 -0.001624 -0.008323)
  9:    453.67   0.000069    0.35  0.000048  ( 0.002194  0.001390  0.006406)
 10:    460.70   0.000127    0.64  0.000086  ( 0.008174 -0.003704 -0.002286)
 11:    464.87   0.001166    5.89  0.000783  ( 0.024213  0.009551 -0.010255)
 12:    547.54   0.023754  120.04  0.013538  (-0.036985 -0.022474 -0.108007)
 13:    561.70   0.000098    0.49  0.000054  (-0.002384 -0.001741 -0.006758)
 14:    647.66   0.000110    0.56  0.000053  ( 0.006458  0.002098 -0.002621)
 15:    726.85   0.000018    0.09  0.000008  ( 0.000812  0.000530  0.002610)
 16:    753.15   0.010481   52.97  0.004343  (-0.062016 -0.003541  0.022008)
 17:    843.78   0.001857    9.38  0.000687  ( 0.008351  0.005188  0.024291)
 18:    861.05   0.000057    0.29  0.000021  (-0.003873 -0.001708  0.001611)
 19:    879.32   0.013096   66.18  0.004648  ( 0.021780  0.013532  0.063168)
 20:    964.11   0.000174    0.88  0.000056  (-0.002524 -0.001548 -0.006899)
 21:    993.13   0.000000    0.00  0.000000  (-0.000035 -0.000176  0.000099)
 22:   1011.75   0.000174    0.88  0.000054  (-0.006945 -0.000111  0.002327)
 23:   1104.08   0.003843   19.42  0.001086  (-0.013055  0.030203 -0.001848)
 24:   1157.69   0.000066    0.33  0.000018  ( 0.001991  0.003433 -0.001409)
 25:   1217.85   0.024543  124.03  0.006289  ( 0.073140  0.013176 -0.027674)
 26:   1251.66   0.026639  134.62  0.006642  ( 0.077215 -0.002269 -0.025969)
 27:   1303.13   0.004702   23.76  0.001126  ( 0.031438  0.002952 -0.011351)
 28:   1307.62   0.000917    4.63  0.000219  (-0.013831  0.003362  0.004024)
 29:   1370.15   0.010578   53.45  0.002409  (-0.045744  0.012130  0.013018)
 30:   1472.38   0.008455   42.73  0.001792  (-0.039425 -0.005130  0.014541)
 31:   1545.95   0.049782  251.58  0.010049  ( 0.094678  0.002619 -0.032833)
 32:   1644.47   0.000896    4.53  0.000170  ( 0.012368 -0.000569 -0.004100)
 33:   1674.56   0.000337    1.70  0.000063  ( 0.007512 -0.000788 -0.002388)
 34:   3119.95   0.001847    9.33  0.000185  (-0.011816  0.006136  0.002737)
 35:   3156.70   0.000439    2.22  0.000043  ( 0.006084  0.001064 -0.002290)
 36:   3165.78   0.000094    0.48  0.000009  ( 0.002506  0.001306 -0.001134)
 37:   3169.29   0.000030    0.15  0.000003  (-0.000766  0.001539 -0.000074)
 38:   3720.66   0.015284   77.24  0.001282  ( 0.026882 -0.023256 -0.004284)

--------------------------
THERMOCHEMISTRY AT 298.15K
--------------------------

Temperature         ... 298.15 K
Pressure            ... 1.00 atm
Total Mass          ... 112.10 AMU

Throughout the following assumptions are being made:
  (1) The electronic state is orbitally nondegenerate
  (2) There are no thermally accessible electronically excited states
  (3) Hindered rotations indicated by low frequency modes are not
      treated as such but are treated as vibrations and this may
      cause some error
  (4) All equations used are the standard statistical mechanics
      equations for an ideal gas
  (5) All vibrations are strictly harmonic

freq.     182.78  E(vib)   ...       0.37
freq.     362.22  E(vib)   ...       0.22
freq.     396.38  E(vib)   ...       0.20
freq.     453.67  E(vib)   ...       0.16
freq.     460.70  E(vib)   ...       0.16
freq.     464.87  E(vib)   ...       0.16
freq.     547.54  E(vib)   ...       0.12
freq.     561.70  E(vib)   ...       0.11
freq.     647.66  E(vib)   ...       0.09
freq.     726.85  E(vib)   ...       0.06
freq.     753.15  E(vib)   ...       0.06
freq.     843.78  E(vib)   ...       0.04
freq.     861.05  E(vib)   ...       0.04
freq.     879.32  E(vib)   ...       0.04
freq.     964.11  E(vib)   ...       0.03
freq.     993.13  E(vib)   ...       0.02
freq.    1011.75  E(vib)   ...       0.02
freq.    1104.08  E(vib)   ...       0.02
freq.    1157.69  E(vib)   ...       0.01
freq.    1217.85  E(vib)   ...       0.01
freq.    1251.66  E(vib)   ...       0.01
freq.    1303.13  E(vib)   ...       0.01
freq.    1307.62  E(vib)   ...       0.01
freq.    1370.15  E(vib)   ...       0.01
freq.    1472.38  E(vib)   ...       0.00
freq.    1545.95  E(vib)   ...       0.00
freq.    1644.47  E(vib)   ...       0.00
freq.    1674.56  E(vib)   ...       0.00
freq.    3119.95  E(vib)   ...       0.00
freq.    3156.70  E(vib)   ...       0.00
freq.    3165.78  E(vib)   ...       0.00
freq.    3169.29  E(vib)   ...       0.00
freq.    3720.66  E(vib)   ...       0.00

------------
INNER ENERGY
------------

The inner energy is: U= E(el) + E(ZPE) + E(vib) + E(rot) + E(trans)
    E(el)   - is the total energy from the electronic structure calculation
              = E(kin-el) + E(nuc-el) + E(el-el) + E(nuc-nuc)
    E(ZPE)  - the the zero temperature vibrational energy from the frequency calculation
    E(vib)  - the the finite temperature correction to E(ZPE) due to population
              of excited vibrational states
    E(rot)  - is the rotational thermal energy
    E(trans)- is the translational thermal energy

Summary of contributions to the inner energy U:
Electronic energy                ...   -405.97251507 Eh
Zero point energy                ...      0.09680523 Eh      60.75 kcal/mol
Thermal vibrational correction   ...      0.00314217 Eh       1.97 kcal/mol
Thermal rotational correction    ...      0.00141627 Eh       0.89 kcal/mol
Thermal translational correction ...      0.00141627 Eh       0.89 kcal/mol
-----------------------------------------------------------------------
Total thermal energy                   -405.86973513 Eh

Summary of corrections to the electronic energy:
(perhaps to be used in another calculation)
Total thermal correction                  0.00597471 Eh       3.75 kcal/mol
Non-thermal (ZPE) correction              0.09680523 Eh      60.75 kcal/mol
-----------------------------------------------------------------------
Total correction                          0.10277994 Eh      64.50 kcal/mol

--------
ENTHALPY
--------

The enthalpy is H = U + kB*T
                kB is Boltzmann's constant
Total free energy                 ...   -405.86973513 Eh
Thermal Enthalpy correction       ...      0.00094421 Eh       0.59 kcal/mol
-----------------------------------------------------------------------
Total Enthalpy                    ...   -405.86879092 Eh

Note: Only C1 symmetry has been detected, increase convergence thresholds
      if your molecule has a higher symmetry. Symmetry factor of 1.0 is
      used for the rotational entropy correction.

Note: Rotational entropy computed according to Herzberg
Infrared and Raman Spectra, Chapter V,1, Van Nostrand Reinhold, 1945
Point Group:  C1, Symmetry Number:   1
Rotational constants in cm-1:     0.185107     0.047741     0.037953

Vibrational entropy computed according to the QRRHO of S. Grimme
Chem.Eur.J. 2012 18 9955

-------
ENTROPY
-------

The entropy contributions are T*S = T*(S(el)+S(vib)+S(rot)+S(trans))
     S(el)   - electronic entropy
     S(vib)  - vibrational entropy
     S(rot)  - rotational entropy
     S(trans)- translational entropy
The entropies will be listed as multiplied by the temperature to get
units of energy

Electronic entropy                ...      0.00000000 Eh      0.00 kcal/mol
Vibrational entropy               ...      0.00462777 Eh      2.90 kcal/mol
Rotational entropy                ...      0.01328762 Eh      8.34 kcal/mol
Translational entropy             ...      0.01903305 Eh     11.94 kcal/mol
-----------------------------------------------------------------------
Final entropy term                ...      0.03694844 Eh     23.19 kcal/mol

In case the symmetry of your molecule has not been determined correctly
or in case you have a reason to use a different symmetry number we print
out the resulting rotational entropy values for sn=1,12 :
 --------------------------------------------------------
|  sn= 1 | S(rot)=       0.01328762 Eh      8.34 kcal/mol|
|  sn= 2 | S(rot)=       0.01263317 Eh      7.93 kcal/mol|
|  sn= 3 | S(rot)=       0.01225033 Eh      7.69 kcal/mol|
|  sn= 4 | S(rot)=       0.01197871 Eh      7.52 kcal/mol|
|  sn= 5 | S(rot)=       0.01176802 Eh      7.38 kcal/mol|
|  sn= 6 | S(rot)=       0.01159588 Eh      7.28 kcal/mol|
|  sn= 7 | S(rot)=       0.01145033 Eh      7.19 kcal/mol|
|  sn= 8 | S(rot)=       0.01132425 Eh      7.11 kcal/mol|
|  sn= 9 | S(rot)=       0.01121304 Eh      7.04 kcal/mol|
|  sn=10 | S(rot)=       0.01111357 Eh      6.97 kcal/mol|
|  sn=11 | S(rot)=       0.01102358 Eh      6.92 kcal/mol|
|  sn=12 | S(rot)=       0.01094142 Eh      6.87 kcal/mol|
 --------------------------------------------------------

-------------------
GIBBS FREE ENERGY
-------------------

The Gibbs free energy is G = H - T*S

Total enthalpy                    ...   -405.86879092 Eh
Total entropy correction          ...     -0.03694844 Eh    -23.19 kcal/mol
-----------------------------------------------------------------------
Final Gibbs free energy         ...   -405.90573935 Eh

For completeness - the Gibbs free energy minus the electronic energy
G-E(el)                           ...      0.06677571 Eh     41.90 kcal/mol

                             ****ORCA TERMINATED NORMALLY****
TOTAL RUN TIME: 0 days 0 hours 0 minutes 35 seconds 63 msec
